 &FCI NORB=   6,NELEC= 6,MS2=0,
  ORBSYM=1,1,1,1,1,1,
  ISYM=1,
 &END
 0.501584546544378    1    1    1    1
 0.4093961252751653    1    1    2    2
 -0.08951775851124907    1    1    3    1
 0.4203848890914605    1    1    3    3
 0.094728883237352    1    1    4    2
 0.4336160739345709    1    1    4    4
 0.0006758951726835091    1    1    5    1
 0.099115909149273    1    1    5    3
 0.4451118356380989    1    1    5    5
 -0.00380237854506143    1    1    6    2
 0.09336090819925943    1    1    6    4
 0.5471808939419656    1    1    6    6
 0.1375495099278096    2    1    2    1
 0.1046446225004069    2    1    3    2
 0.05639139634024574    2    1    4    1
 -0.09108013541220496    2    1    4    3
 0.05091194119154501    2    1    5    2
 0.1113532198032971    2    1    5    4
 0.003062218256954489    2    1    6    1
 -0.05481719999505242    2    1    6    3
 -0.1409840960624577    2    1    6    5
 0.4093961252751654    2    2    1    1
 0.4342224578529392    2    2    2    2
 0.017959880876917    2    2    3    1
 0.4061462113977258    2    2    3    3
 0.02441505968165857    2    2    4    2
 0.4151444806651755    2    2    4    4
 0.03896471383610804    2    2    5    1
 0.02540696830933369    2    2    5    3
 0.4480678344496017    2    2    5    5
 -0.03940486073279686    2    2    6    2
 -0.008230862466825166    2    2    6    4
 0.4486403828966584    2    2    6    6
 -0.0895177585112491    3    1    1    1
 0.01795988087691704    3    1    2    2
 0.09945094049085058    3    1    3    1
 -0.0206302974341418    3    1    3    3
 -0.06316493788647465    3    1    4    2
 -0.02383310405767716    3    1    4    4
 0.03740296332758657    3    1    5    1
 -0.06780019488353357    3    1    5    3
 -0.00410368697947509    3    1    5    5
 -0.0340270984076232    3    1    6    2
 -0.09485821248296189    3    1    6    4
 -0.100167006421584    3    1    6    6
 0.1046446225004069    3    2    2    1
 0.1337818226267966    3    2    3    2
 -0.01095523367677106    3    2    4    1
 -0.09753369986668284    3    2    4    3
 0.007532574540352308    3    2    5    2
 0.1238765824265143    3    2    5    4
 -0.02551288572723445    3    2    6    1
 0.002646618472160413    3    2    6    3
 -0.1103726804383816    3    2    6    5
 0.4203848890914605    3    3    1    1
 0.4061462113977257    3    3    2    2
 -0.02063029743414181    3    3    3    1
 0.4293345869911828    3    3    3    3
 0.006638564164074219    3    3    4    2
 0.4236661770778395    3    3    4    4
 -0.01417350003081553    3    3    5    1
 0.02212131259146091    3    3    5    3
 0.4301792499223882    3    3    5    5
 0.003370100113975536    3    3    6    2
 0.02551915812999092    3    3    6    4
 0.4647087993678385    3    3    6    6
 0.05639139634024574    4    1    2    1
 -0.01095523367677106    4    1    3    2
 0.0774030191993091    4    1    4    1
 -0.009850818641126871    4    1    4    3
 0.05258150724939822    4    1    5    2
 0.006871092467046865    4    1    5    4
 0.0297756735824766    4    1    6    1
 -0.06879231824419992    4    1    6    3
 -0.05807261531127846    4    1    6    5
 0.09472888323735201    4    2    1    1
 0.0244150596816586    4    2    2    2
 -0.06316493788647462    4    2    3    1
 0.006638564164074171    4    2    3    3
 0.09115674749003466    4    2    4    2
 0.02685847679282619    4    2    4    4
 0.02271149030334154    4    2    5    1
 0.08131296541015495    4    2    5    3
 0.0405048495093767    4    2    5    5
 -0.01575974981680497    4    2    6    2
 0.06465296327264233    4    2    6    4
 0.1086078275962502    4    2    6    6
 -0.09108013541220494    4    3    2    1
 -0.09753369986668287    4    3    3    2
 -0.009850818641126882    4    3    4    1
 0.1155700650333156    4    3    4    3
 0.02390750695090262    4    3    5    2
 -0.0965463202567048    4    3    5    4
 -0.03159984258193899    4    3    6    1
 0.01161084217485759    4    3    6    3
 0.09737979195556176    4    3    6    5
 0.4336160739345709    4    4    1    1
 0.4151444806651755    4    4    2    2
 -0.0238331040576771    4    4    3    1
 0.4236661770778395    4    4    3    3
 0.02685847679282615    4    4    4    2
 0.4443122810938934    4    4    4    4
 0.001110119624483355    4    4    5    1
 0.02171328003243614    4    4    5    3
 0.444976174622883    4    4    5    5
 0.004443655138822354    4    4    6    2
 0.02982874065128931    4    4    6    4
 0.4848024280413653    4    4    6    6
 0.0006758951726834968    5    1    1    1
 0.03896471383610807    5    1    2    2
 0.03740296332758658    5    1    3    1
 -0.01417350003081554    5    1    3    3
 0.02271149030334152    5    1    4    2
 0.001110119624483366    5    1    4    4
 0.05704920634580783    5    1    5    1
 0.009187712017272023    5    1    5    3
 0.03469308816570886    5    1    5    5
 -0.04808141495516852    5    1    6    2
 -0.03468220053025759    5    1    6    4
 0.001051501655650705    5    1    6    6
 0.05091194119154504    5    2    2    1
 0.007532574540352293    5    2    3    2
 0.05258150724939822    5    2    4    1
 0.02390750695090258    5    2    4    3
 0.08144381145159618    5    2    5    2
 0.01781838266215681    5    2    5    4
 -0.02805799004711344    5    2    6    1
 -0.05054206675202072    5    2    6    3
 -0.05451778444050204    5    2    6    5
 0.09911590914927303    5    3    1    1
 0.02540696830933365    5    3    2    2
 -0.06780019488353363    5    3    3    1
 0.02212131259146094    5    3    3    3
 0.08131296541015502    5    3    4    2
 0.02171328003243611    5    3    4    4
 0.009187712017272066    5    3    5    1
 0.08992812556998646    5    3    5    3
 0.04269467308333869    5    3    5    5
 -0.01667299443067511    5    3    6    2
 0.0690353718753578    5    3    6    4
 0.1173065430757896    5    3    6    6
 0.1113532198032971    5    4    2    1
 0.1238765824265143    5    4    3    2
 0.006871092467046838    5    4    4    1
 -0.09654632025670473    5    4    4    3
 0.01781838266215685    5    4    5    2
 0.1355139379668488    5    4    5    4
 -0.02196953201659781    5    4    6    1
 -0.0003895043223396191    5    4    6    3
 -0.1206306767928031    5    4    6    5
 0.4451118356380989    5    5    1    1
 0.4480678344496013    5    5    2    2
 -0.004103686979475166    5    5    3    1
 0.4301792499223883    5    5    3    3
 0.04050484950937677    5    5    4    2
 0.4449761746228832    5    5    4    4
 0.03469308816570885    5    5    5    1
 0.0426946730833385    5    5    5    3
 0.4915413724636107    5    5    5    5
 -0.03854845941987221    5    5    6    2
 0.0006364418706629685    5    5    6    4
 0.5048749654074773    5    5    6    6
 0.00306221825695444    6    1    2    1
 -0.02551288572723445    6    1    3    2
 0.0297756735824766    6    1    4    1
 -0.03159984258193899    6    1    4    3
 -0.02805799004711357    6    1    5    2
 -0.02196953201659799    6    1    5    4
 0.06538069758502238    6    1    6    1
 -0.02803466263929097    6    1    6    3
 -0.003842446377784733    6    1    6    5
 -0.003802378545061453    6    2    1    1
 -0.03940486073279684    6    2    2    2
 -0.03402709840762319    6    2    3    1
 0.003370100113975517    6    2    3    3
 -0.01575974981680497    6    2    4    2
 0.004443655138822315    6    2    4    4
 -0.04808141495516859    6    2    5    1
 -0.01667299443067508    6    2    5    3
 -0.03854845941987252    6    2    5    5
 0.05122511853468977    6    2    6    2
 0.03496124111992898    6    2    6    4
 -0.005151553780801824    6    2    6    6
 -0.05481719999505242    6    3    2    1
 0.002646618472160443    6    3    3    2
 -0.06879231824419992    6    3    4    1
 0.01161084217485764    6    3    4    3
 -0.05054206675202073    6    3    5    2
 -0.0003895043223395497    6    3    5    4
 -0.02803466263929098    6    3    6    1
 0.07463192991101644    6    3    6    3
 0.06313758878033233    6    3    6    5
 0.09336090819925943    6    4    1    1
 -0.008230862466825079    6    4    2    2
 -0.09485821248296189    6    4    3    1
 0.02551915812999098    6    4    3    3
 0.06465296327264232    6    4    4    2
 0.02982874065128925    6    4    4    4
 -0.03468220053025775    6    4    5    1
 0.06903537187535785    6    4    5    3
 0.0006364418706626927    6    4    5    5
 0.03496124111992892    6    4    6    2
 0.1070513150658144    6    4    6    4
 0.1143999155729558    6    4    6    6
 -0.1409840960624576    6    5    2    1
 -0.1103726804383815    6    5    3    2
 -0.0580726153112784    6    5    4    1
 0.09737979195556165    6    5    4    3
 -0.05451778444050215    6    5    5    2
 -0.120630676792803    6    5    5    4
 -0.003842446377785067    6    5    6    1
 0.0631375887803324    6    5    6    3
 0.1661060834020468    6    5    6    5
 0.5471808939419656    6    6    1    1
 0.4486403828966585    6    6    2    2
 -0.1001670064215842    6    6    3    1
 0.4647087993678384    6    6    3    3
 0.1086078275962502    6    6    4    2
 0.4848024280413648    6    6    4    4
 0.00105150165565064    6    6    5    1
 0.1173065430757897    6    6    5    3
 0.5048749654074779    6    6    5    5
 -0.005151553780801645    6    6    6    2
 0.1143999155729556    6    6    6    4
 0.6459250182221022    6    6    6    6
 -2.769734494088806    1    1  0  0
 -2.442239459748391    2    2  0  0
 0.1788729204070667    3    1  0  0
 -2.186745475696215    3    3  0  0
 -0.2682922754067503    4    2  0  0
 -1.859610412568613    4    4  0  0
 -0.06714658371131986    5    1  0  0
 -0.2262315111274824    5    3  0  0
 -1.77635683940025e-15    5    4  0  0
 -1.383382280454838    5    5  0  0
 0.04597824240790232    6    2  0  0
 -0.1956716445240968    6    4  0  0
 -0.8718254740063606    6    6  0  0
 6.138455646672  0  0  0  0
