 &FCI NORB=   6,NELEC= 6,MS2=0,
  ORBSYM=1,1,1,1,1,1,
  ISYM=1,
 &END
 0.2875132184757844    1    1    1    1
 0.2214241553962497    1    1    2    2
 0.06260798747595821    1    1    3    1
 0.2588087879237133    1    1    3    3
 -0.04999903139424415    1    1    4    2
 0.2609871880526787    1    1    4    4
 0.01057708258360005    1    1    5    1
 -0.05162378722212649    1    1    5    3
 0.2259282088385257    1    1    5    5
 0.01172693236324025    1    1    6    2
 0.06477658020515681    1    1    6    4
 0.2967280406023132    1    1    6    6
 0.1129794194682104    2    1    2    1
 -0.09647944701210807    2    1    3    2
 -0.03875708597145561    2    1    4    1
 -0.05633041806132046    2    1    4    3
 0.02723896375975822    2    1    5    2
 -0.09719933231655187    2    1    5    4
 -0.0008264239069828982    2    1    6    1
 -0.03992801875591088    2    1    6    3
 0.1175963291762448    2    1    6    5
 -1.311450947838466e-15    2    1    6    6
 0.2214241553962497    2    2    1    1
 0.2765962827232085    2    2    2    2
 -0.05448946144861094    2    2    3    1
 0.2286888118440784    2    2    3    3
 0.004929150561836002    2    2    4    2
 0.229410924839452    2    2    4    4
 0.02781873176771208    2    2    5    1
 0.003489312277036583    2    2    5    3
 0.2824308344875352    2    2    5    5
 0.02885098247049345    2    2    6    2
 -0.05520995856866738    2    2    6    4
 0.2296032398975114    2    2    6    6
 0.06260798747595819    3    1    1    1
 -0.05448946144861094    3    1    2    2
 0.113822386350167    3    1    3    1
 0.03162046643396561    3    1    3    3
 -0.04680488888848979    3    1    4    2
 0.03287074813237854    3    1    4    4
 -0.02304471377671275    3    1    5    1
 -0.04712376295898946    3    1    5    3
 -0.05566361825560956    3    1    5    5
 -0.02283704467136592    3    1    6    2
 0.1166035305667311    3    1    6    4
 1.224714774039626e-15    3    1    6    5
 0.06385613614219363    3    1    6    6
 -0.09647944701210809    3    2    2    1
 0.1135563915126512    3    2    3    2
 -0.01782784849458965    3    2    4    1
 0.04742756906470725    3    2    4    3
 0.00956905763744122    3    2    5    2
 0.1144654507241797    3    2    5    4
 -0.02010569114443661    3    2    6    1
 -0.01678453286441991    3    2    6    3
 -0.1009992608719641    3    2    6    5
 0.2588087879237133    3    3    1    1
 0.2286888118440784    3    3    2    2
 0.03162046643396559    3    3    3    1
 0.2600691357287467    3    3    3    3
 -0.0007759786651557257    3    3    4    2
 0.2613394365908571    3    3    4    4
 -0.01793875919152    3    3    5    1
 -0.002570118120758261    3    3    5    3
 1.040834085586084e-15    3    3    5    4
 0.2339385328264157    3    3    5    5
 -0.01667773855830817    3    3    6    2
 0.03251752316909101    3    3    6    4
 0.2678984310819131    3    3    6    6
 -0.03875708597145562    4    1    2    1
 -0.01782784849458964    4    1    3    2
 0.09700631581934924    4    1    4    1
 0.02068620384204545    4    1    4    3
 -0.06344666449690889    4    1    5    2
 -0.01852018941815931    4    1    5    4
 0.03469522583939037    4    1    6    1
 0.09807373864911513    4    1    6    3
 -0.04007692192388831    4    1    6    5
 -0.04999903139424417    4    2    1    1
 0.004929150561836005    4    2    2    2
 -0.04680488888848978    4    2    3    1
 -0.0007759786651557223    4    2    3    3
 0.0825775694835499    4    2    4    2
 -0.00118730293312668    4    2    4    4
 -0.05098489387954306    4    2    5    1
 0.08338298721800054    4    2    5    3
 0.005667376024422546    4    2    5    5
 -0.05159483630052328    4    2    6    2
 -0.04907757757329263    4    2    6    4
 -0.0517694139579528    4    2    6    6
 -0.05633041806132046    4    3    2    1
 0.04742756906470727    4    3    3    2
 0.02068620384204548    4    3    4    1
 0.1036356286087797    4    3    4    3
 0.06171127429855266    4    3    5    2
 0.0486216598984039    4    3    5    4
 0.07707513094992616    4    3    6    1
 0.02025431617430239    4    3    6    3
 -0.05917262608098023    4    3    6    5
 0.2609871880526787    4    4    1    1
 0.2294109248394521    4    4    2    2
 0.03287074813237853    4    4    3    1
 0.2613394365908571    4    4    3    3
 -0.001187302933126667    4    4    4    2
 0.2652970531599279    4    4    4    4
 -0.01849543001835638    4    4    5    1
 -0.001452824543412622    4    4    5    3
 0.2354406820297182    4    4    5    5
 -0.0184215895210897    4    4    6    2
 0.0340862853400305    4    4    6    4
 0.2706789029797568    4    4    6    6
 0.01057708258360003    5    1    1    1
 0.02781873176771209    5    1    2    2
 -0.02304471377671275    5    1    3    1
 -0.01793875919152001    5    1    3    3
 -0.05098489387954307    5    1    4    2
 -0.01849543001835636    5    1    4    4
 0.0624670359768133    5    1    5    1
 -0.05167631798085838    5    1    5    3
 0.0280623217751023    5    1    5    5
 0.06304284790029963    5    1    6    2
 -0.02287600165989459    5    1    6    4
 0.01144117855049565    5    1    6    6
 0.02723896375975825    5    2    2    1
 0.009569057637441224    5    2    3    2
 -0.06344666449690889    5    2    4    1
 0.06171127429855266    5    2    4    3
 0.1186595862882959    5    2    5    2
 0.01114470039600096    5    2    5    4
 0.05437048551072698    5    2    6    1
 -0.06574024202358231    5    2    6    3
 0.0282122971436254    5    2    6    5
 -0.0516237872221265    5    3    1    1
 0.003489312277036589    5    3    2    2
 -0.04712376295898946    5    3    3    1
 -0.002570118120758256    5    3    3    3
 0.08338298721800055    5    3    4    2
 -0.001452824543412634    5    3    4    4
 -0.05167631798085838    5    3    5    1
 0.08529529678522602    5    3    5    3
 0.0043132097417359    5    3    5    5
 -0.05312290467585938    5    3    6    2
 -0.04939597098158519    5    3    6    4
 -0.05390973448143715    5    3    6    6
 -0.0971993323165519    5    4    2    1
 0.1144654507241797    5    4    3    2
 1.02695629777827e-15    5    4    3    3
 -0.01852018941815931    5    4    4    1
 0.04862165989840389    5    4    4    3
 0.01114470039600098    5    4    5    2
 0.1171955212410285    5    4    5    4
 -0.01994053535681933    5    4    6    1
 -0.01863637999982206    5    4    6    3
 -0.1022599114140228    5    4    6    5
 1.60288449180257e-15    5    4    6    6
 0.2259282088385257    5    5    1    1
 0.2824308344875352    5    5    2    2
 -0.05566361825560955    5    5    3    1
 0.2339385328264157    5    5    3    3
 0.005667376024422521    5    5    4    2
 0.2354406820297182    5    5    4    4
 0.0280623217751023    5    5    5    1
 0.004313209741735886    5    5    5    3
 0.290738227785313    5    5    5    5
 0.02913695899201799    5    5    6    2
 -0.05768337072836167    5    5    6    4
 0.235586268895929    5    5    6    6
 -0.0008264239069828943    6    1    2    1
 -0.0201056911444366    6    1    3    2
 0.03469522583939037    6    1    4    1
 0.07707513094992616    6    1    4    3
 0.05437048551072696    6    1    5    2
 -0.01994053535681933    6    1    5    4
 0.09093248111014907    6    1    6    1
 0.03399167409957285    6    1    6    3
 -0.0009413923000086899    6    1    6    5
 0.01172693236324024    6    2    1    1
 0.02885098247049344    6    2    2    2
 -0.02283704467136591    6    2    3    1
 -0.01667773855830818    6    2    3    3
 -0.05159483630052326    6    2    4    2
 -0.0184215895210897    6    2    4    4
 0.0630428479002996    6    2    5    1
 -0.05312290467585936    6    2    5    3
 0.02913695899201795    6    2    5    5
 0.06426636003338018    6    2    6    2
 -0.02283134790368069    6    2    6    4
 0.0128975997079839    6    2    6    6
 -0.03992801875591087    6    3    2    1
 -0.01678453286441992    6    3    3    2
 0.09807373864911513    6    3    4    1
 0.02025431617430237    6    3    4    3
 -0.06574024202358231    6    3    5    2
 -0.01863637999982207    6    3    5    4
 0.03399167409957285    6    3    6    1
 0.1004208043674914    6    3    6    3
 -0.04189796927678208    6    3    6    5
 0.06477658020515682    6    4    1    1
 -0.05520995856866739    6    4    2    2
 0.1166035305667311    6    4    3    1
 0.03251752316909098    6    4    3    3
 -0.04907757757329265    6    4    4    2
 0.03408628534003053    6    4    4    4
 -0.02287600165989458    6    4    5    1
 -0.0493959709815852    6    4    5    3
 -0.05768337072836167    6    4    5    5
 -0.02283134790368069    6    4    6    2
 0.1212004289221551    6    4    6    4
 1.226449497515603e-15    6    4    6    5
 0.06677921993074044    6    4    6    6
 0.1175963291762448    6    5    2    1
 1.228184220991579e-15    6    5    3    1
 -0.1009992608719641    6    5    3    2
 -0.0400769219238883    6    5    4    1
 -0.05917262608098024    6    5    4    3
 0.02821229714362539    6    5    5    2
 -0.1022599114140228    6    5    5    4
 -0.0009413923000086907    6    5    6    1
 -0.04189796927678208    6    5    6    3
 1.235123114895487e-15    6    5    6    4
 0.1242374968852993    6    5    6    5
 0.2967280406023132    6    6    1    1
 -1.307981500886513e-15    6    6    2    1
 0.2296032398975113    6    6    2    2
 0.06385613614219358    6    6    3    1
 0.2678984310819131    6    6    3    3
 -0.05176941395795281    6    6    4    2
 0.2706789029797568    6    6    4    4
 0.01144117855049564    6    6    5    1
 -0.05390973448143714    6    6    5    3
 1.609823385706477e-15    6    6    5    4
 0.2355862688959289    6    6    5    5
 0.0128975997079839    6    6    6    2
 0.06677921993074042    6    6    6    4
 0.3092706697586797    6    6    6    6
 -1.334706618945212    1    1  0  0
 -1.223536506329296    2    2  0  0
 -0.08172887605134685    3    1  0  0
 -1.222909456425182    3    3  0  0
 0.105290923333287    4    2  0  0
 -1.183833424504498    4    4  0  0
 -0.05022153165103187    5    1  0  0
 0.08536373330958369    5    3  0  0
 -1.304512053934559e-15    5    4  0  0
 -1.108284074263465    5    5  0  0
 -0.03656052016879893    6    2  0  0
 -0.08081349508105119    6    4  0  0
 -1.165590589736977    6    6  0  0
 2.245776456099512  0  0  0  0
