 &FCI NORB=   6,NELEC= 6,MS2=0,
  ORBSYM=1,1,1,1,1,1,
  ISYM=1,
 &END
 0.3472373097864113    1    1    1    1
 0.2751638883121226    1    1    2    2
 -0.06909108665260738    1    1    3    1
 0.3013236936100212    1    1    3    3
 0.06376081961610328    1    1    4    2
 0.304440000598747    1    1    4    4
 0.008023660476947901    1    1    5    1
 0.06585506866621832    1    1    5    3
 0.2838857076779859    1    1    5    5
 -0.009102886881696359    1    1    6    2
 0.07185463922501702    1    1    6    4
 1.040834085586084e-15    1    1    6    5
 0.3638055850529348    1    1    6    6
 0.1228989411732264    2    1    2    1
 0.09639911045316758    2    1    3    2
 0.04500203817893362    2    1    4    1
 -0.07140144403165252    2    1    4    3
 0.03574150913539351    2    1    5    2
 0.09795494156856517    2    1    5    4
 0.0007844879177725398    2    1    6    1
 -0.046092923500186    2    1    6    3
 -0.1275309361009435    2    1    6    5
 0.2751638883121226    2    2    1    1
 0.316017459294013    2    2    2    2
 0.04008939174726038    2    2    3    1
 0.279075092141179    2    2    3    3
 0.002284243938267858    2    2    4    2
 0.2811043966668005    2    2    4    4
 0.03275285189317401    2    2    5    1
 0.004071911379199149    2    2    5    3
 0.3226474090698689    2    2    5    5
 -0.03381651358828276    2    2    6    2
 -0.03771880428002148    2    2    6    4
 0.2896169625091836    2    2    6    6
 -0.06909108665260739    3    1    1    1
 0.04008939174726039    3    1    2    2
 0.1060688818744628    3    1    3    1
 -0.02444377580863259    3    1    3    3
 -0.05515712126929468    3    1    4    2
 -0.02483333467758172    3    1    4    4
 0.0283862873300901    3    1    5    1
 -0.05613535128066678    3    1    5    3
 0.03773892612267368    3    1    5    5
 -0.02791120687159348    3    1    6    2
 -0.106576536599034    3    1    6    4
 -0.07207827575711528    3    1    6    6
 0.09639911045316761    3    2    2    1
 0.1179593455175653    3    2    3    2
 -0.01826946198146315    3    2    4    1
 -0.06647500414924597    3    2    4    3
 -0.004468394422134706    3    2    5    2
 0.1166321701729865    3    2    5    4
 -0.02322209541446209    3    2    6    1
 0.01487819669538919    3    2    6    3
 -0.101883531438358    3    2    6    5
 0.3013236936100212    3    3    1    1
 0.2790750921411791    3    3    2    2
 -0.02444377580863258    3    3    3    1
 0.3052396717217175    3    3    3    3
 0.0002265332338963894    3    3    4    2
 0.3037311210960226    3    3    4    4
 -0.01825937298401767    3    3    5    1
 0.005328234227968607    3    3    5    3
 0.2882476795460451    3    3    5    5
 0.01484061000190245    3    3    6    2
 0.02560473706443998    3    3    6    4
 0.3179716108953136    3    3    6    6
 0.04500203817893361    4    1    2    1
 -0.01826946198146315    4    1    3    2
 0.08485380861350406    4    1    4    1
 -0.01305581532310804    4    1    4    3
 0.05502326344106505    4    1    5    2
 -0.01531452979878055    4    1    5    4
 0.03092933637334182    4    1    6    1
 -0.0835248663075224    4    1    6    3
 -0.04595529362650549    4    1    6    5
 0.06376081961610326    4    2    1    1
 0.002284243938267859    4    2    2    2
 -0.05515712126929469    4    2    3    1
 0.0002265332338963898    4    2    3    3
 0.08300451128353864    4    2    4    2
 0.004340112876184394    4    2    4    4
 0.03684213039347055    4    2    5    1
 0.08133710764075316    4    2    5    3
 0.002840200850324087    4    2    5    5
 -0.03534883045735354    4    2    6    2
 0.05801574627691496    4    2    6    4
 0.06742086471637787    4    2    6    6
 -0.07140144403165254    4    3    2    1
 -0.06647500414924597    4    3    3    2
 -0.01305581532310804    4    3    4    1
 0.1036564548767314    4    3    4    3
 0.04780128030868291    4    3    5    2
 -0.06857138776585681    4    3    5    4
 -0.05624875689014273    4    3    6    1
 0.01334181967556173    4    3    6    3
 0.07603275572725351    4    3    6    5
 0.304440000598747    4    4    1    1
 0.2811043966668006    4    4    2    2
 -0.02483333467758173    4    4    3    1
 0.3037311210960226    4    4    3    3
 0.004340112876184403    4    4    4    2
 0.3117538196931596    4    4    4    4
 -0.01538116197692146    4    4    5    1
 0.002907819427506477    4    4    5    3
 0.2924964061464192    4    4    5    5
 0.01692914926114062    4    4    6    2
 0.02671584454129728    4    4    6    4
 0.3230406735604446    4    4    6    6
 0.008023660476947898    5    1    1    1
 0.03275285189317403    5    1    2    2
 0.0283862873300901    5    1    3    1
 -0.01825937298401768    5    1    3    3
 0.03684213039347056    5    1    4    2
 -0.01538116197692147    5    1    4    4
 0.05695216983634886    5    1    5    1
 0.03498427973168571    5    1    5    3
 0.03251907430684639    5    1    5    5
 -0.05571955692166214    5    1    6    2
 -0.02739809327694615    5    1    6    4
 0.008804995488012047    5    1    6    6
 0.03574150913539349    5    2    2    1
 -0.004468394422134718    5    2    3    2
 0.05502326344106506    5    2    4    1
 0.0478012803086829    5    2    4    3
 0.09842393639149478    5    2    5    2
 -0.004842184828889481    5    2    5    4
 -0.04375056326392878    5    2    6    1
 -0.05656299361285114    5    2    6    3
 -0.03700401347726699    5    2    6    5
 0.06585506866621829    5    3    1    1
 0.004071911379199154    5    3    2    2
 -0.05613535128066677    5    3    3    1
 0.005328234227968575    5    3    3    3
 0.08133710764075316    5    3    4    2
 0.002907819427506489    5    3    4    4
 0.03498427973168571    5    3    5    1
 0.08479603388057151    5    3    5    3
 0.004322093524748129    5    3    5    5
 -0.03728751369055364    5    3    6    2
 0.0590045273762362    5    3    6    4
 0.07097652315175157    5    3    6    6
 0.09795494156856518    5    4    2    1
 0.1166321701729866    5    4    3    2
 -0.01531452979878055    5    4    4    1
 -0.06857138776585681    5    4    4    3
 -0.004842184828889474    5    4    5    2
 0.1222747032951311    5    4    5    4
 -0.02211649107205354    5    4    6    1
 0.01669383378295486    5    4    6    3
 -0.1051275188235682    5    4    6    5
 0.2838857076779859    5    5    1    1
 0.3226474090698691    5    5    2    2
 0.0377389261226737    5    5    3    1
 0.2882476795460451    5    5    3    3
 0.002840200850324076    5    5    4    2
 0.2924964061464191    5    5    4    4
 0.0325190743068464    5    5    5    1
 0.004322093524748112    5    5    5    3
 0.3381445546927173    5    5    5    5
 -0.03402433985507868    5    5    6    2
 -0.0402804225950215    5    5    6    4
 0.3035046420252239    5    5    6    6
 0.0007844879177725439    6    1    2    1
 -0.0232220954144621    6    1    3    2
 0.03092933637334183    6    1    4    1
 -0.05624875689014274    6    1    4    3
 -0.04375056326392881    6    1    5    2
 -0.02211649107205355    6    1    5    4
 0.07802916424770784    6    1    6    1
 -0.0301072516296205    6    1    6    3
 -0.0009230247076518743    6    1    6    5
 -0.009102886881696325    6    2    1    1
 -0.03381651358828278    6    2    2    2
 -0.02791120687159349    6    2    3    1
 0.01484061000190244    6    2    3    3
 -0.03534883045735354    6    2    4    2
 0.0169291492611406    6    2    4    4
 -0.05571955692166215    6    2    5    1
 -0.03728751369055364    6    2    5    3
 -0.0340243398550787    6    2    5    5
 0.05743725113657902    6    2    6    2
 0.02785413072829624    6    2    6    4
 -0.01047714508936931    6    2    6    6
 -0.04609292350018599    6    3    2    1
 0.01487819669538918    6    3    3    2
 -0.08352486630752243    6    3    4    1
 0.01334181967556174    6    3    4    3
 -0.05656299361285114    6    3    5    2
 0.01669383378295486    6    3    5    4
 -0.03010725162962051    6    3    6    1
 0.08714770279314674    6    3    6    3
 0.04927225370782413    6    3    6    5
 0.07185463922501702    6    4    1    1
 -0.03771880428002147    6    4    2    2
 -0.106576536599034    6    4    3    1
 0.02560473706444    6    4    3    3
 0.05801574627691496    6    4    4    2
 0.02671584454129727    6    4    4    4
 -0.02739809327694617    6    4    5    1
 0.0590045273762362    6    4    5    3
 -0.0402804225950215    6    4    5    5
 0.02785413072829625    6    4    6    2
 0.1135366446443477    6    4    6    4
 0.07775084651376607    6    4    6    6
 1.054711873393899e-15    6    5    1    1
 -0.1275309361009435    6    5    2    1
 -0.101883531438358    6    5    3    2
 -0.04595529362650549    6    5    4    1
 0.07603275572725351    6    5    4    3
 -0.03700401347726702    6    5    5    2
 -0.1051275188235682    6    5    5    4
 -0.0009230247076518873    6    5    6    1
 0.04927225370782413    6    5    6    3
 0.1393761718470871    6    5    6    5
 0.3638055850529348    6    6    1    1
 0.2896169625091836    6    6    2    2
 -0.07207827575711528    6    6    3    1
 0.3179716108953137    6    6    3    3
 0.06742086471637786    6    6    4    2
 0.3230406735604446    6    6    4    4
 0.008804995488012064    6    6    5    1
 0.07097652315175162    6    6    5    3
 0.303504642025224    6    6    5    5
 -0.01047714508936932    6    6    6    2
 0.07775084651376608    6    6    6    4
 0.3930306842060086    6    6    6    6
 -1.740316896398042    1    1  0  0
 -1.576976091529819    2    2  0  0
 0.1097551887463608    3    1  0  0
 -1.515489629251534    3    3  0  0
 -0.151731915844864    4    2  0  0
 -1.40966560392173    4    4  0  0
 -0.05740446044793168    5    1  0  0
 -0.1212643007760847    5    3  0  0
 -1.266180374486792    5    5  0  0
 0.03800375150065295    6    2  0  0
 -0.1105588176721093    6    4  0  0
 -1.273734540057338    6    6  0  0
 3.17506326552  0  0  0  0
