 &FCI NORB=   6,NELEC= 6,MS2=0,
  ORBSYM=1,1,1,1,1,1,
  ISYM=1,
 &END
 0.396861500372786    1    1    1    1
 0.3184790658854645    1    1    2    2
 -0.07541113817972168    1    1    3    1
 0.3389299288550703    1    1    3    3
 0.07344075176447956    1    1    4    2
 0.3435773595372204    1    1    4    4
 0.005973119072349861    1    1    5    1
 0.07604194222284263    1    1    5    3
 0.3324373704247298    1    1    5    5
 -0.007199058641958243    1    1    6    2
 0.0782558595158438    1    1    6    4
 0.4204098500359291    1    1    6    6
 0.1297402230057872    2    1    2    1
 0.09915890352492361    2    1    3    2
 0.04882379462462108    2    1    4    1
 -0.07953422576928434    2    1    4    3
 0.04079613426014277    2    1    5    2
 0.1017207128832016    2    1    5    4
 0.001303785915667585    2    1    6    1
 -0.04923547537701427    2    1    6    3
 -0.1335143807481794    2    1    6    5
 0.3184790658854645    2    2    1    1
 0.3527766493435606    2    2    2    2
 0.03249854906495023    2    2    3    1
 0.3197797307230188    2    2    3    3
 0.008512411584147804    2    2    4    2
 0.3231326863590397    2    2    4    4
 0.03506556504517205    2    2    5    1
 0.01036636888577341    2    2    5    3
 0.3597280077716644    2    2    5    5
 -0.0357495960271803    2    2    6    2
 -0.02698487309743319    2    2    6    4
 0.3388390723913289    2    2    6    6
 -0.07541113817972167    3    1    1    1
 0.03249854906495023    3    1    2    2
 0.103777786847555    3    1    3    1
 -0.02189560209121998    3    1    3    3
 -0.058821421575115    3    1    4    2
 -0.02218658250740716    3    1    4    4
 0.03144015864235818    3    1    5    1
 -0.06059385663873033    3    1    5    3
 0.02524163319150389    3    1    5    5
 -0.03022136200580938    3    1    6    2
 -0.1014990142547572    3    1    6    4
 -0.08006684967998312    3    1    6    6
 0.09915890352492358    3    2    2    1
 0.122988274179815    3    2    3    2
 -0.01666980018406908    3    2    4    1
 -0.07805843922410965    3    2    4    3
 -0.000630931544910146    3    2    5    2
 0.1186004602665604    3    2    5    4
 -0.02412412971409094    3    2    6    1
 0.01087883857425478    3    2    6    3
 -0.1046918788343262    3    2    6    5
 0.3389299288550703    3    3    1    1
 0.3197797307230189    3    3    2    2
 -0.02189560209121996    3    3    3    1
 0.3440761069411531    3    3    3    3
 0.001270841736025857    3    3    4    2
 0.3397440026110859    3    3    4    4
 -0.01704673669481977    3    3    5    1
 0.0100915097518816    3    3    5    3
 0.3322910581073902    3    3    5    5
 0.01112401346393848    3    3    6    2
 0.02379893514446321    3    3    6    4
 0.3623158217011976    3    3    6    6
 0.04882379462462109    4    1    2    1
 -0.01666980018406908    4    1    3    2
 0.08072532025929852    4    1    4    1
 -0.01033002357433087    4    1    4    3
 0.05259315220839099    4    1    5    2
 -0.009309146723270609    4    1    5    4
 0.0297993738762918    4    1    6    1
 -0.0763749789538436    4    1    6    3
 -0.04940569085822512    4    1    6    5
 0.07344075176447956    4    2    1    1
 0.008512411584147801    4    2    2    2
 -0.05882142157511498    4    2    3    1
 0.001270841736025861    4    2    3    3
 0.08488097998422364    4    2    4    2
 0.009923354638288759    4    2    4    4
 0.03054563264511497    4    2    5    1
 0.08020697100056898    4    2    5    3
 0.01189358624380593    4    2    5    5
 -0.02679166915074773    4    2    6    2
 0.06120572045144843    4    2    6    4
 0.07919344856256    4    2    6    6
 -0.07953422576928433    4    3    2    1
 -0.07805843922410967    4    3    3    2
 -0.01033002357433088    4    3    4    1
 0.1058413450189761    4    3    4    3
 0.03862181937269451    4    3    5    2
 -0.07984139981158576    4    3    5    4
 -0.04533450893294197    4    3    6    1
 0.0112970956262043    4    3    6    3
 0.08484389633078217    4    3    6    5
 0.3435773595372204    4    4    1    1
 0.3231326863590396    4    4    2    2
 -0.02218658250740719    4    4    3    1
 0.3397440026110859    4    4    3    3
 0.009923354638288764    4    4    4    2
 0.3514239985511557    4    4    4    4
 -0.01015115433100043    4    4    5    1
 0.006930685588616595    4    4    5    3
 0.3388565659800024    4    4    5    5
 0.01324203123219678    4    4    6    2
 0.02506517242003061    4    4    6    4
 0.3700988460623023    4    4    6    6
 0.005973119072349868    5    1    1    1
 0.03506556504517205    5    1    2    2
 0.03144015864235817    5    1    3    1
 -0.01704673669481978    5    1    3    3
 0.03054563264511496    5    1    4    2
 -0.01015115433100042    5    1    4    4
 0.05543954064167534    5    1    5    1
 0.02535028529063443    5    1    5    3
 0.03387897356580639    5    1    5    5
 -0.05178421989618717    5    1    6    2
 -0.0294544682192982    5    1    6    4
 0.00667077275450324    5    1    6    6
 0.04079613426014279    5    2    2    1
 -0.0006309315449101582    5    2    3    2
 0.05259315220839098    5    2    4    1
 0.03862181937269449    5    2    4    3
 0.08928757329454708    5    2    5    2
 0.001239237107185005    5    2    5    4
 -0.03729401672829938    5    2    6    1
 -0.05287201533486382    5    2    6    3
 -0.04230487908342229    5    2    6    5
 0.07604194222284269    5    3    1    1
 0.01036636888577341    5    3    2    2
 -0.06059385663873034    5    3    3    1
 0.01009150975188158    5    3    3    3
 0.08020697100056898    5    3    4    2
 0.006930685588616625    5    3    4    4
 0.02535028529063443    5    3    5    1
 0.08523877873530167    5    3    5    3
 0.01349261381599533    5    3    5    5
 -0.02884082651352995    5    3    6    2
 0.06293147196082016    5    3    6    4
 0.08408311880128548    5    3    6    6
 0.1017207128832016    5    4    2    1
 0.1186004602665605    5    4    3    2
 -0.009309146723270607    5    4    4    1
 -0.07984139981158578    5    4    4    3
 0.001239237107185001    5    4    5    2
 0.1262828673500904    5    4    5    4
 -0.02210482907282007    5    4    6    1
 0.01200398718877316    5    4    6    3
 -0.1096995544630017    5    4    6    5
 0.3324373704247298    5    5    1    1
 0.3597280077716644    5    5    2    2
 0.02524163319150391    5    5    3    1
 0.3322910581073902    5    5    3    3
 0.01189358624380592    5    5    4    2
 0.3388565659800025    5    5    4    4
 0.03387897356580639    5    5    5    1
 0.01349261381599529    5    5    5    3
 0.3816317071817413    5    5    5    5
 -0.03569874761519945    5    5    6    2
 -0.02799718607356166    5    5    6    4
 0.3615892557415855    5    5    6    6
 0.001303785915667582    6    1    2    1
 -0.02412412971409093    6    1    3    2
 0.02979937387629181    6    1    4    1
 -0.04533450893294198    6    1    4    3
 -0.03729401672829938    6    1    5    2
 -0.02210482907282007    6    1    5    4
 0.07177784253160646    6    1    6    1
 -0.02856437244385326    6    1    6    3
 -0.00153834085148434    6    1    6    5
 -0.007199058641958257    6    2    1    1
 -0.03574959602718031    6    2    2    2
 -0.03022136200580938    6    2    3    1
 0.01112401346393851    6    2    3    3
 -0.02679166915074774    6    2    4    2
 0.01324203123219675    6    2    4    4
 -0.05178421989618718    6    2    5    1
 -0.02884082651352995    6    2    5    3
 -0.03569874761519946    6    2    5    5
 0.05385578025506838    6    2    6    2
 0.03008573639308224    6    2    6    4
 -0.008595740916614931    6    2    6    6
 -0.04923547537701427    6    3    2    1
 0.0108788385742548    6    3    3    2
 -0.07637497895384361    6    3    4    1
 0.01129709562620432    6    3    4    3
 -0.05287201533486381    6    3    5    2
 0.01200398718877319    6    3    5    4
 -0.0285643724438533    6    3    6    1
 0.08060258698071221    6    3    6    3
 0.05355043697869166    6    3    6    5
 0.0782558595158438    6    4    1    1
 -0.02698487309743322    6    4    2    2
 -0.1014990142547572    6    4    3    1
 0.02379893514446321    6    4    3    3
 0.0612057204514484    6    4    4    2
 0.0250651724200306    6    4    4    4
 -0.02945446821929822    6    4    5    1
 0.06293147196082016    6    4    5    3
 -0.02799718607356167    6    4    5    5
 0.03008573639308225    6    4    6    2
 0.1097831039759331    6    4    6    4
 0.08800490030425384    6    4    6    6
 -0.1335143807481793    6    5    2    1
 -0.1046918788343262    6    5    3    2
 -0.04940569085822513    6    5    4    1
 0.0848438963307822    6    5    4    3
 -0.04230487908342229    6    5    5    2
 -0.1096995544630017    6    5    5    4
 -0.001538340851484349    6    5    6    1
 0.05355043697869166    6    5    6    3
 0.1492721531790021    6    5    6    5
 0.4204098500359291    6    6    1    1
 0.3388390723913289    6    6    2    2
 -0.08006684967998311    6    6    3    1
 0.3623158217011976    6    6    3    3
 0.07919344856255998    6    6    4    2
 0.3700988460623024    6    6    4    4
 0.006670772754503234    6    6    5    1
 0.08408311880128541    6    6    5    3
 0.3615892557415855    6    6    5    5
 -0.008595740916614896    6    6    6    2
 0.08800490030425387    6    6    6    4
 0.4665831937872257    6    6    6    6
 -2.066322921226925    1    1  0  0
 -1.858311756272797    2    2  0  0
 0.1314685493768071    3    1  0  0
 -1.744252353741121    3    3  0  0
 -0.1871702532208898    4    2  0  0
 -1.575268154294553    4    4  0  0
 -0.0618085039961839    5    1  0  0
 -0.1520988962734784    5    3  0  0
 -1.349338589605529    5    5  0  0
 1.082467449009528e-15    6    1  0  0
 0.04008230517009208    6    2  0  0
 -0.1358350460985311    6    4  0  0
 -1.266996123879278    6    6  0  0
 4.003340639133913  0  0  0  0
