 &FCI NORB=   6,NELEC= 6,MS2=0,
  ORBSYM=1,1,1,1,1,1,
  ISYM=1,
 &END
 0.2585855495663668    1    1    1    1
 -7.265021917390868e-15    1    1    2    1
 0.1949568318191901    1    1    2    2
 0.06000578076283947    1    1    3    1
 9.103828801926284e-15    1    1    3    2
 0.2410459660441628    1    1    3    3
 -5.443562267615221e-15    1    1    4    1
 0.03916551297098177    1    1    4    2
 -3.552713678800501e-15    1    1    4    3
 0.242781619419343    1    1    4    4
 0.0118174050538087    1    1    5    1
 -2.67841304690819e-15    1    1    5    2
 -0.04038414089882263    1    1    5    3
 -5.127842594987442e-15    1    1    5    4
 0.1975074519325506    1    1    5    5
 -0.01288458957141092    1    1    6    2
 -3.486794186713382e-15    1    1    6    3
 0.06138139888586389    1    1    6    4
 9.745676488037702e-15    1    1    6    5
 0.2636019414975318    1    1    6    6
 -7.256348300010984e-15    2    1    1    1
 0.1080946314755691    2    1    2    1
 8.042178034628478e-15    2    1    2    2
 7.426351200656711e-15    2    1    3    1
 -0.1000465914555791    2    1    3    2
 -1.911665270526441e-15    2    1    3    3
 0.03209676136915581    2    1    4    1
 1.054711873393899e-15    2    1    4    2
 0.04323801831033908    2    1    4    3
 3.649858193455202e-15    2    1    4    4
 -2.289834988289385e-15    2    1    5    1
 0.01911335868090685    2    1    5    2
 1.061650767297806e-15    2    1    5    3
 0.1002472892727223    2    1    5    4
 -1.058875209736243e-14    2    1    5    5
 0.001828433278608325    2    1    6    1
 0.03283274969879005    2    1    6    3
 -0.1115295760160745    2    1    6    5
 8.536574225281868e-15    2    1    6    6
 0.1949568318191901    2    2    1    1
 8.042178034628478e-15    2    2    2    1
 0.2623984247845663    2    2    2    2
 -0.06604996558582346    2    2    3    1
 -1.151162498658209e-14    2    2    3    2
 0.2026348713949441    2    2    3    3
 1.283695372222837e-15    2    2    4    1
 -0.007332050502042942    2    2    4    2
 4.996003610813204e-15    2    2    4    3
 0.202505456308217    2    2    4    4
 0.02144692748798143    2    2    5    1
 -1.110223024625157e-15    2    2    5    2
 0.006300641338061262    2    2    5    3
 8.736067425019201e-15    2    2    5    4
 0.2663501059276081    2    2    5    5
 1.040834085586084e-15    2    2    6    1
 -0.02216242249111539    2    2    6    2
 -0.06720079286592297    2    2    6    4
 -1.152550277438991e-14    2    2    6    5
 0.200049670117054    2    2    6    6
 0.06000578076283947    3    1    1    1
 7.419412306752804e-15    3    1    2    1
 -0.06604996558582346    3    1    2    2
 0.1220705417705431    3    1    3    1
 -1.706967900361178e-15    3    1    3    2
 0.03882155828800832    3    1    3    3
 -2.067790383364354e-15    3    1    4    1
 0.03744259603126365    3    1    4    2
 0.04063416879803868    3    1    4    4
 -0.01659412585202841    3    1    5    1
 -0.03758429388081783    3    1    5    3
 8.000544671205034e-15    3    1    5    4
 -0.06736762298079738    3    1    5    5
 -2.366162821232365e-15    3    1    6    1
 0.01629580399499301    3    1    6    2
 0.1244796028115196    3    1    6    4
 -2.189221026682731e-15    3    1    6    5
 0.0599629281714215    3    1    6    6
 9.10035935497433e-15    3    2    1    1
 -0.1000465914555791    3    2    2    1
 -1.150468609267818e-14    3    2    2    2
 -1.700029006457271e-15    3    2    3    1
 0.1115892544796155    3    2    3    2
 3.339342691255354e-15    3    2    3    3
 0.01347651500961516    3    2    4    1
 3.441691376337985e-15    3    2    4    2
 -0.033553635821684    3    2    4    3
 -1.085936895961481e-15    3    2    4    4
 1.089406342913435e-15    3    2    5    1
 0.01132477160176779    3    2    5    2
 -1.720845688168993e-15    3    2    5    3
 -0.1121925688274428    3    2    5    4
 7.466249840604178e-15    3    2    5    5
 0.01448096677585289    3    2    6    1
 0.01298948649031401    3    2    6    3
 7.804520918419655e-15    3    2    6    4
 0.103336382007648    3    2    6    5
 -4.024558464266192e-15    3    2    6    6
 0.2410459660441629    3    3    1    1
 -1.911665270526441e-15    3    3    2    1
 0.2026348713949441    3    3    2    2
 0.03882155828800834    3    3    3    1
 3.34107741473133e-15    3    3    3    2
 0.2396482070582993    3    3    3    3
 -1.81452075587174e-15    3    3    4    1
 0.003234655210452141    3    3    4    2
 -1.165734175856414e-15    3    3    4    3
 0.2411560657520335    3    3    4    4
 -0.01350978580658727    3    3    5    1
 -1.207367539279858e-15    3    3    5    2
 -0.004191646995924513    3    3    5    3
 -1.654926196081874e-15    3    3    5    4
 0.2055269329237063    3    3    5    5
 0.01272205679974505    3    3    6    2
 -1.366962099069724e-15    3    3    6    3
 0.03959036265042717    3    3    6    4
 3.996802888650564e-15    3    3    6    5
 0.2460186978061869    3    3    6    6
 -5.47131784323085e-15    4    1    1    1
 0.03209676136915579    4    1    2    1
 1.27675647831893e-15    4    1    2    2
 -2.046973701652632e-15    4    1    3    1
 0.01347651500961515    4    1    3    2
 -1.788499903732088e-15    4    1    3    3
 0.1080934736497559    4    1    4    1
 2.67841304690819e-15    4    1    4    2
 0.02794550851876889    4    1    4    3
 1.335737076502141e-15    4    1    4    4
 -3.491998357141313e-15    4    1    5    1
 0.07172011232114044    4    1    5    2
 6.419344222852175e-15    4    1    5    3
 -0.0145695029609609    4    1    5    4
 0.03778466512508741    4    1    6    1
 0.1090700095965758    4    1    6    3
 -0.03313842310183858    4    1    6    5
 2.647188024340608e-15    4    1    6    6
 0.03916551297098175    4    2    1    1
 1.058181320345852e-15    4    2    2    1
 -0.007332050502042935    4    2    2    2
 0.03744259603126365    4    2    3    1
 3.427813588530171e-15    4    2    3    2
 0.003234655210452133    4    2    3    3
 2.681882493860144e-15    4    2    4    1
 0.08205029835440522    4    2    4    2
 0.003123395082584909    4    2    4    4
 0.0625624987780046    4    2    5    1
 5.408867798095685e-15    4    2    5    2
 -0.08311354756022062    4    2    5    3
 1.373900992973631e-15    4    2    5    4
 -0.007814655957115915    4    2    5    5
 -0.06355439005212954    4    2    6    2
 6.293576770843856e-15    4    2    6    3
 0.03870143640330993    4    2    6    4
 -1.172673069760322e-15    4    2    6    5
 0.03996765796098014    4    2    6    6
 -3.573530360512223e-15    4    3    1    1
 0.0432380183103391    4    3    2    1
 4.98212582300539e-15    4    3    2    2
 -0.03355363582168398    4    3    3    2
 -1.124100812432971e-15    4    3    3    3
 0.0279455085187689    4    3    4    1
 0.1049970833881689    4    3    4    3
 1.068589661201713e-15    4    3    4    4
 5.1833537462187e-15    4    3    5    1
 -0.06823161028204253    4    3    5    2
 -1.082467449009528e-15    4    3    5    3
 0.03384575322896557    4    3    5    4
 -4.621303340002214e-15    4    3    5    5
 0.09187500755878451    4    3    6    1
 5.10702591327572e-15    4    3    6    2
 0.02707162638930948    4    3    6    3
 -0.04474030095605776    4    3    6    5
 3.33066907387547e-15    4    3    6    6
 0.242781619419343    4    4    1    1
 3.646388746503249e-15    4    4    2    1
 0.202505456308217    4    4    2    2
 0.04063416879803871    4    4    3    1
 -1.078998002057574e-15    4    4    3    2
 0.2411560657520335    4    4    3    3
 1.304512053934559e-15    4    4    4    1
 0.003123395082584905    4    4    4    2
 1.110223024625157e-15    4    4    4    3
 0.2433769441543858    4    4    4    4
 -0.014437215509046    4    4    5    1
 -0.003754066250083243    4    4    5    3
 2.817190924986335e-15    4    4    5    4
 0.2056181213013961    4    4    5    5
 0.01391401333088264    4    4    6    2
 1.807581861967833e-15    4    4    6    3
 0.04153082655958745    4    4    6    4
 -1.637578961322106e-15    4    4    6    5
 0.2479165176567457    4    4    6    6
 0.01181740505380869    5    1    1    1
 -2.279426647433525e-15    5    1    2    1
 0.02144692748798142    5    1    2    2
 -0.01659412585202841    5    1    3    1
 1.07552855510562e-15    5    1    3    2
 -0.01350978580658726    5    1    3    3
 -3.491998357141313e-15    5    1    4    1
 0.0625624987780046    5    1    4    2
 5.179884299266746e-15    5    1    4    3
 -0.01443721550904599    5    1    4    4
 0.06712873244250865    5    1    5    1
 -6.900729987435739e-15    5    1    5    2
 -0.06354025367490698    5    1    5    3
 0.0216011350958334    5    1    5    5
 5.466113672802919e-15    5    1    6    1
 -0.06797048576557951    5    1    6    2
 -1.372166269497654e-15    5    1    6    3
 -0.01649482099077986    5    1    6    4
 0.01259138927978754    5    1    6    6
 -2.657596365196468e-15    5    2    1    1
 0.01911335868090684    5    2    2    1
 -1.096345236817342e-15    5    2    2    2
 0.01132477160176778    5    2    3    2
 -1.221245327087672e-15    5    2    3    3
 0.07172011232114044    5    2    4    1
 5.412337245047638e-15    5    2    4    2
 -0.06823161028204254    5    2    4    3
 -6.890321646579878e-15    5    2    5    1
 0.134333349923164    5    2    5    2
 4.527628272299467e-15    5    2    5    3
 -0.0125384059312179    5    2    5    4
 1.110223024625157e-15    5    2    5    5
 -0.06078361104900743    5    2    6    1
 -7.296246939958451e-15    5    2    6    2
 0.07379947790888879    5    2    6    3
 -0.01974499241114201    5    2    6    5
 2.393918396847994e-15    5    2    6    6
 -0.04038414089882262    5    3    1    1
 1.058181320345852e-15    5    3    2    1
 0.006300641338061259    5    3    2    2
 -0.03758429388081783    5    3    3    1
 -1.700029006457271e-15    5    3    3    2
 -0.004191646995924534    5    3    3    3
 6.415007414162233e-15    5    3    4    1
 -0.08311354756022062    5    3    4    2
 -1.073793831629644e-15    5    3    4    3
 -0.003754066250083257    5    3    4    4
 -0.06354025367490698    5    3    5    1
 4.534567166203374e-15    5    3    5    2
 0.08441308333225536    5    3    5    3
 -3.275157922644212e-15    5    3    5    4
 0.00678802309824305    5    3    5    5
 0.06472213450365458    5    3    6    2
 2.914335439641036e-15    5    3    6    3
 -0.03884592241251328    5    3    6    4
 -0.04136395688075346    5    3    6    6
 -5.119168977607558e-15    5    4    1    1
 0.1002472892727223    5    4    2    1
 8.729128531115293e-15    5    4    2    2
 7.997075224253081e-15    5    4    3    1
 -0.1121925688274428    5    4    3    2
 -1.658395643033828e-15    5    4    3    3
 -0.01456950296096088    5    4    4    1
 1.35308431126191e-15    5    4    4    2
 0.03384575322896557    5    4    4    3
 2.810252031082427e-15    5    4    4    4
 -0.01253840593121788    5    4    5    2
 -3.261280134836397e-15    5    4    5    3
 0.1132419401432428    5    4    5    4
 -1.04638520070921e-14    5    4    5    5
 -0.01457543244957719    5    4    6    1
 -1.033895191682177e-15    5    4    6    2
 -0.01434844261229639    5    4    6    3
 -1.399921845113283e-15    5    4    6    4
 -0.1036804551698277    5    4    6    5
 8.033504417248594e-15    5    4    6    6
 0.1975074519325506    5    5    1    1
 -1.059569099126634e-14    5    5    2    1
 0.2663501059276081    5    5    2    2
 -0.06736762298079738    5    5    3    1
 7.487066522315899e-15    5    5    3    2
 0.2055269329237063    5    5    3    3
 -0.007814655957115911    5    5    4    2
 -4.621303340002214e-15    5    5    4    3
 0.2056181213013961    5    5    4    4
 0.0216011350958334    5    5    5    1
 1.082467449009528e-15    5    5    5    2
 0.006788023098243043    5    5    5    3
 -1.045691311318819e-14    5    5    5    4
 0.2709549246479814    5    5    5    5
 -0.02232375829434671    5    5    6    2
 -1.27675647831893e-15    5    5    6    3
 -0.06884320190624371    5    5    6    4
 7.695233339433116e-15    5    5    6    5
 0.2030192672568852    5    5    6    6
 0.00182843327860833    6    1    2    1
 1.020017403874363e-15    6    1    2    2
 -2.338407245616736e-15    6    1    3    1
 0.0144809667758529    6    1    3    2
 0.03778466512508741    6    1    4    1
 0.09187500755878451    6    1    4    3
 5.452235884995105e-15    6    1    5    1
 -0.06078361104900744    6    1    5    2
 -0.01457543244957719    6    1    5    4
 0.09960149071147109    6    1    6    1
 4.767020111984266e-15    6    1    6    2
 0.03679392749229839    6    1    6    3
 1.901256929670581e-15    6    1    6    4
 -0.001946150992561391    6    1    6    5
 -0.01288458957141091    6    2    1    1
 -0.02216242249111539    6    2    2    2
 0.01629580399499301    6    2    3    1
 0.01272205679974506    6    2    3    3
 -0.06355439005212955    6    2    4    2
 5.110495360227674e-15    6    2    4    3
 0.01391401333088264    6    2    4    4
 -0.06797048576557951    6    2    5    1
 -7.310124727766265e-15    6    2    5    2
 0.0647221345036546    6    2    5    3
 -1.054711873393899e-15    6    2    5    4
 -0.0223237582943467    6    2    5    5
 4.767887473722254e-15    6    2    6    1
 0.06896654330832147    6    2    6    2
 -2.785965902418752e-15    6    2    6    3
 0.0162121754166531    6    2    6    4
 1.956768080901838e-15    6    2    6    5
 -0.01378906203832475    6    2    6    6
 -3.462508058049707e-15    6    3    1    1
 0.03283274969879005    6    3    2    1
 0.012989486490314    6    3    3    2
 -1.361757928641794e-15    6    3    3    3
 0.1090700095965758    6    3    4    1
 6.288372600415926e-15    6    3    4    2
 0.02707162638930948    6    3    4    3
 1.821459649775647e-15    6    3    4    4
 -1.373900992973631e-15    6    3    5    1
 0.07379947790888879    6    3    5    2
 2.912600716165059e-15    6    3    5    3
 -0.01434844261229642    6    3    5    4
 -1.262878690511116e-15    6    3    5    5
 0.03679392749229839    6    3    6    1
 -2.780761731990822e-15    6    3    6    2
 0.1103726141233415    6    3    6    3
 1.922073611382302e-15    6    3    6    4
 -0.03406244840355171    6    3    6    5
 4.822531263215524e-15    6    3    6    6
 0.06138139888586388    6    4    1    1
 -0.06720079286592295    6    4    2    2
 0.1244796028115196    6    4    3    1
 7.809725088847586e-15    6    4    3    2
 0.03959036265042721    6    4    3    3
 0.03870143640330993    6    4    4    2
 0.04153082655958747    6    4    4    4
 -0.01649482099077987    6    4    5    1
 -0.03884592241251328    6    4    5    3
 -1.415534356397075e-15    6    4    5    4
 -0.06884320190624368    6    4    5    5
 1.897787482718627e-15    6    4    6    1
 0.0162121754166531    6    4    6    2
 1.922073611382302e-15    6    4    6    3
 0.1273692933139613    6    4    6    4
 6.553785292240377e-15    6    4    6    5
 0.06151551674278403    6    4    6    6
 9.721390359374027e-15    6    5    1    1
 -0.1115295760160745    6    5    2    1
 -1.152550277438991e-14    6    5    2    2
 -2.194425197110661e-15    6    5    3    1
 0.103336382007648    6    5    3    2
 4.003741782554471e-15    6    5    3    3
 -0.03313842310183859    6    5    4    1
 -1.193489751472043e-15    6    5    4    2
 -0.04474030095605775    6    5    4    3
 -1.637578961322106e-15    6    5    4    4
 -0.019744992411142    6    5    5    2
 -0.1036804551698277    6    5    5    4
 7.688294445529209e-15    6    5    5    5
 -0.001946150992561391    6    5    6    1
 1.970645868709653e-15    6    5    6    2
 -0.03406244840355171    6    5    6    3
 6.54684639833647e-15    6    5    6    4
 0.1155291005695589    6    5    6    5
 -6.626643678231403e-15    6    5    6    6
 0.2636019414975317    6    6    1    1
 8.538308948757845e-15    6    6    2    1
 0.200049670117054    6    6    2    2
 0.05996292817142151    6    6    3    1
 -4.010680676458378e-15    6    6    3    2
 0.2460186978061869    6    6    3    3
 2.661065812148422e-15    6    6    4    1
 0.03996765796098015    6    6    4    2
 3.302913498259841e-15    6    6    4    3
 0.2479165176567457    6    6    4    4
 0.01259138927978753    6    6    5    1
 2.386979502944087e-15    6    6    5    2
 -0.04136395688075345    6    6    5    3
 8.045647481580431e-15    6    6    5    4
 0.2030192672568852    6    6    5    5
 -0.01378906203832475    6    6    6    2
 4.801714581503802e-15    6    6    6    3
 0.06151551674278405    6    6    6    4
 -6.602357549567728e-15    6    6    6    5
 0.269512347628992    6    6    6    6
 -1.137317508873151    1    1  0  0
 -1.110223024625157e-15    2    1  0  0
 -1.052143291986272    2    2  0  0
 -0.0667739181292528    3    1  0  0
 -3.191891195797325e-15    3    2  0  0
 -1.078152355101174    3    3  0  0
 1.762479051592436e-15    4    1  0  0
 -0.0789248277996869    4    2  0  0
 -1.063032118083904    4    4  0  0
 -0.04616236779336208    5    1  0  0
 0.06708947015666969    5    3  0  0
 -2.275957200481571e-15    5    4  0  0
 -1.004761675964012    5    5  0  0
 0.03730550099241947    6    2  0  0
 -1.346145417358002e-15    6    3  0  0
 -0.06623996008637587    6    4  0  0
 -1.065977185708434    6    6  0  0
 1.805428131374117  0  0  0  0
