 &FCI NORB=   6,NELEC= 6,MS2=0,
  ORBSYM=1,1,1,1,1,1,
  ISYM=1,
 &END
 0.5845251634617521    1    1    1    1
 0.4819792330479022    1    1    2    2
 -0.1013191076757682    1    1    3    1
 0.4838689962334147    1    1    3    3
 -0.1140946214894578    1    1    4    2
 0.5093091918062376    1    1    4    4
 -0.004934062960391013    1    1    5    1
 0.1180360170571477    1    1    5    3
 0.5449237282073788    1    1    5    5
 0.001257490486385126    1    1    6    2
 0.1040373260834927    1    1    6    4
 2.147587663259287e-15    1    1    6    5
 0.665783095669516    1    1    6    6
 0.1379888588838377    2    1    2    1
 0.1057514821767748    2    1    3    2
 -0.06216323757999342    2    1    4    1
 0.096133218092043    2    1    4    3
 0.058340739826615    2    1    5    2
 -0.1170008632684272    2    1    5    4
 -0.004968629541504815    2    1    6    1
 0.05711020052597139    2    1    6    3
 0.1464270773639769    2    1    6    5
 -2.393918396847994e-15    2    1    6    6
 0.4819792330479023    2    2    1    1
 0.5008292472287503    2    2    2    2
 0.004483780215536855    2    2    3    1
 0.4743083352862385    2    2    3    3
 -0.04117077123019962    2    2    4    2
 0.4913615501928009    2    2    4    4
 0.04052184125140765    2    2    5    1
 0.03969210864714159    2    2    5    3
 0.5302706344762258    2    2    5    5
 0.04105961127345807    2    2    6    2
 0.003293434589336445    2    2    6    4
 -2.164934898019055e-15    2    2    6    5
 0.5459659517623907    2    2    6    6
 -0.1013191076757682    3    1    1    1
 0.00448378021553685    3    1    2    2
 0.09415655306963613    3    1    3    1
 -0.02288654717210224    3    1    3    3
 0.06490431256438008    3    1    4    2
 -0.03094797893407163    3    1    4    4
 0.04093638718917751    3    1    5    1
 -0.07128437139831986    3    1    5    3
 -0.03030192151486431    3    1    5    5
 0.03512933781978406    3    1    6    2
 -0.09135135448018866    3    1    6    4
 -1.693090112553364e-15    3    1    6    5
 -0.128682098072284    3    1    6    6
 0.1057514821767748    3    2    2    1
 0.1403960670476497    3    2    3    2
 0.005061162402226118    3    2    4    1
 0.1095879047233158    3    2    4    3
 0.01420084197424181    3    2    5    2
 -0.1277929381666213    3    2    5    4
 0.02555888700733421    3    2    6    1
 0.001354797233830542    3    2    6    3
 0.1115512382048919    3    2    6    5
 -3.358424649491099e-15    3    2    6    6
 0.4838689962334147    3    3    1    1
 0.4743083352862386    3    3    2    2
 -0.02288654717210221    3    3    3    1
 0.497573404264338    3    3    3    3
 -0.01433356594969645    3    3    4    2
 0.495426049276022    3    3    4    4
 -0.01168104856525571    3    3    5    1
 0.03183114744187296    3    3    5    3
 1.332267629550188e-15    3    3    5    4
 0.5126361135224229    3    3    5    5
 0.001321709032926947    3    3    6    2
 0.02953073909828423    3    3    6    4
 0.5569444379724025    3    3    6    6
 -0.0621632375799934    4    1    2    1
 0.005061162402226142    4    1    3    2
 0.07607385623119797    4    1    4    1
 -0.01279099199921412    4    1    4    3
 -0.05426509952494613    4    1    5    2
 0.02044067825543427    4    1    5    4
 -1.082467449009528e-15    4    1    5    5
 0.02967393789424416    4    1    6    1
 -0.06602032194090472    4    1    6    3
 -0.0719322501419313    4    1    6    5
 -0.1140946214894578    4    2    1    1
 -0.04117077123019961    4    2    2    2
 0.06490431256438009    4    2    3    1
 -0.01433356594969635    4    2    3    3
 0.09766094214498146    4    2    4    2
 -0.0453395112169104    4    2    4    4
 -0.01812354189126145    4    2    5    1
 -0.08457010406642826    4    2    5    3
 -0.0742220272313802    4    2    5    5
 -0.01125820797056155    4    2    6    2
 1.033895191682177e-15    4    2    6    3
 -0.06438184607170785    4    2    6    4
 -0.1472404368893228    4    2    6    6
 0.09613321809204295    4    3    2    1
 0.1095879047233158    4    3    3    2
 -0.01279099199921405    4    3    4    1
 0.1254120310861037    4    3    4    3
 -0.0144987384302678    4    3    5    2
 -0.1050628517118635    4    3    5    4
 -0.02547705856433405    4    3    6    1
 0.01411623058734267    4    3    6    3
 0.1040369779238508    4    3    6    5
 4.496403249731884e-15    4    3    6    6
 0.5093091918062377    4    4    1    1
 0.4913615501928008    4    4    2    2
 -0.03094797893407162    4    4    3    1
 1.02695629777827e-15    4    4    3    2
 0.4954260492760216    4    4    3    3
 -0.04533951121691038    4    4    4    2
 0.526070639515021    4    4    4    4
 0.008155405086417693    4    4    5    1
 1.096345236817342e-15    4    4    5    2
 0.03812663199001701    4    4    5    3
 -1.131039706336878e-15    4    4    5    4
 0.5419772352899523    4    4    5    5
 1.637578961322106e-15    4    4    6    1
 0.002651335481369746    4    4    6    2
 -1.713906794265085e-15    4    4    6    3
 0.03731014748960382    4    4    6    4
 -1.892583312290697e-15    4    4    6    5
 0.5978071456494958    4    4    6    6
 -0.004934062960390981    5    1    1    1
 0.04052184125140758    5    1    2    2
 0.04093638718917756    5    1    3    1
 -0.01168104856525582    5    1    3    3
 -0.0181235418912615    5    1    4    2
 0.008155405086417829    5    1    4    4
 0.05949756179843495    5    1    5    1
 -0.001308344627645097    5    1    5    3
 -1.60288449180257e-15    5    1    5    4
 0.03561639779044336    5    1    5    5
 0.04756999729269867    5    1    6    2
 -0.04261694452770935    5    1    6    4
 -0.008557566383050618    5    1    6    6
 0.05834073982661504    5    2    2    1
 0.01420084197424172    5    2    3    2
 -0.05426509952494621    5    2    4    1
 -0.01449873843026755    5    2    4    3
 0.08150043664740839    5    2    5    2
 -0.03436496899852053    5    2    5    4
 1.360023205165817e-15    5    2    5    5
 0.02389112634602693    5    2    6    1
 0.04938407803045345    5    2    6    3
 -1.249000902703301e-15    5    2    6    4
 0.07023643483884023    5    2    6    5
 -4.066191827689636e-15    5    2    6    6
 0.1180360170571477    5    3    1    1
 0.03969210864714173    5    3    2    2
 -0.07128437139831995    5    3    3    1
 0.03183114744187304    5    3    3    3
 -0.0845701040664282    5    3    4    2
 0.0381266319900174    5    3    4    4
 -0.001308344627645148    5    3    5    1
 0.09462035515228702    5    3    5    3
 0.07513839131684213    5    3    5    5
 0.009304134876711834    5    3    6    2
 0.07182998938030208    5    3    6    4
 2.277691923957548e-15    5    3    6    5
 0.1583272329542636    5    3    6    6
 -0.1170008632684272    5    4    2    1
 -0.127792938166621    5    4    3    2
 1.165734175856414e-15    5    4    3    3
 0.02044067825543455    5    4    4    1
 -0.1050628517118636    5    4    4    3
 -2.234323837058128e-15    5    4    4    4
 -1.440687846798738e-15    5    4    5    1
 -0.03436496899852046    5    4    5    2
 0.1442838479977642    5    4    5    4
 -2.373101715136272e-15    5    4    5    5
 -0.02376237336554742    5    4    6    1
 -0.009599212887702255    5    4    6    3
 3.247402347028583e-15    5    4    6    4
 -0.1306858756041776    5    4    6    5
 -1.387778780781446e-15    5    4    6    6
 0.5449237282073791    5    5    1    1
 0.5302706344762251    5    5    2    2
 -0.03030192151486468    5    5    3    1
 0.5126361135224222    5    5    3    3
 -0.07422202723138049    5    5    4    2
 0.5419772352899535    5    5    4    4
 0.03561639779044335    5    5    5    1
 0.07513839131684225    5    5    5    3
 -1.970645868709653e-15    5    5    5    4
 0.6096872399606299    5    5    5    5
 -1.131039706336878e-15    5    5    6    1
 0.04256752133357419    5    5    6    2
 1.731254029024853e-15    5    5    6    3
 0.02304297160948122    5    5    6    4
 1.178224184883447e-14    5    5    6    5
 0.6560186323233304    5    5    6    6
 -0.004968629541504852    6    1    2    1
 0.02555888700733414    6    1    3    2
 0.02967393789424407    6    1    4    1
 -0.02547705856433392    6    1    4    3
 1.736458199452784e-15    6    1    4    4
 0.0238911263460268    6    1    5    2
 -1.089406342913435e-15    6    1    5    3
 -0.0237623733655474    6    1    5    4
 -1.373900992973631e-15    6    1    5    5
 0.06320906206988686    6    1    6    1
 -1.147519579358658e-15    6    1    6    2
 -0.03086209035080394    6    1    6    3
 1.155325835000554e-15    6    1    6    4
 -0.008643786429329645    6    1    6    5
 0.001257490486384968    6    2    1    1
 0.04105961127345793    6    2    2    2
 0.03512933781978399    6    2    3    1
 0.00132170903292708    6    2    3    3
 -0.01125820797056142    6    2    4    2
 0.002651335481370067    6    2    4    4
 0.04756999729269851    6    2    5    1
 0.00930413487671187    6    2    5    3
 0.04256752133357361    6    2    5    5
 -1.297356319596155e-15    6    2    6    1
 0.0505772573489132    6    2    6    2
 -0.04154568624990243    6    2    6    4
 -2.831068712794149e-15    6    2    6    5
 -0.000489064899550605    6    2    6    6
 0.05711020052597145    6    3    2    1
 0.001354797233830611    6    3    3    2
 -0.0660203219409046    6    3    4    1
 1.15706055847653e-15    6    3    4    2
 0.01411623058734293    6    3    4    3
 -1.859623566247137e-15    6    3    4    4
 0.04938407803045343    6    3    5    2
 -0.009599212887702123    6    3    5    4
 -0.03086209035080376    6    3    6    1
 0.07311479796344086    6    3    6    3
 0.0761569839486723    6    3    6    5
 -1.387778780781446e-14    6    3    6    6
 0.1040373260834933    6    4    1    1
 0.003293434589337065    6    4    2    2
 -0.09135135448018851    6    4    3    1
 1.11369247157711e-15    6    4    3    2
 0.02953073909828485    6    4    3    3
 -0.0643818460717078    6    4    4    2
 0.03731014748960412    6    4    4    4
 -0.04261694452770944    6    4    5    1
 0.07182998938030175    6    4    5    3
 1.998401444325282e-15    6    4    5    4
 0.02304297160948209    6    4    5    5
 1.68962066560141e-15    6    4    6    1
 -0.04154568624990294    6    4    6    2
 -1.283695372222837e-15    6    4    6    3
 0.1095205051247434    6    4    6    4
 -2.831068712794149e-15    6    4    6    5
 0.1484324973691905    6    4    6    6
 1.682681771697503e-15    6    5    1    1
 0.146427077363977    6    5    2    1
 -1.312318309576455e-15    6    5    3    1
 0.111551238204891    6    5    3    2
 -0.0719322501419315    6    5    4    1
 0.1040369779238516    6    5    4    3
 -1.637578961322106e-15    6    5    4    4
 -1.448494102440634e-15    6    5    5    1
 0.07023643483883991    6    5    5    2
 1.040834085586084e-15    6    5    5    3
 -0.130685875604177    6    5    5    4
 -1.498801083243961e-15    6    5    5    5
 -0.008643786429328938    6    5    6    1
 -3.663735981263017e-15    6    5    6    2
 0.07615698394867072    6    5    6    3
 -1.346145417358002e-15    6    5    6    4
 0.1889970362956889    6    5    6    5
 -3.737982146034824e-14    6    5    6    6
 0.6657830956695195    6    6    1    1
 -3.025357742103552e-15    6    6    2    1
 0.5459659517623914    6    6    2    2
 -0.1286820980722848    6    6    3    1
 -1.637578961322106e-15    6    6    3    2
 0.5569444379724029    6    6    3    3
 -0.147240436889323    6    6    4    2
 1.859623566247137e-15    6    6    4    3
 0.5978071456495    6    6    4    4
 -0.008557566383052374    6    6    5    1
 -3.802513859341161e-15    6    6    5    2
 0.1583272329542617    6    6    5    3
 1.165734175856414e-15    6    6    5    4
 0.6560186323233314    6    6    5    5
 -0.0004890648995516523    6    6    6    2
 -1.171979180369931e-14    6    6    6    3
 0.1484324973691953    6    6    6    4
 -3.547162563677375e-14    6    6    6    5
 0.8589137333716239    6    6    6    6
 -3.358070290997197    1    1  0  0
 1.179611963664229e-15    2    1  0  0
 -2.902534747847009    2    2  0  0
 0.22098957810105    3    1  0  0
 -2.482494326995742    3    3  0  0
 0.3454518148273344    4    2  0  0
 -1.977748316398988    4    4  0  0
 -0.065691154712941    5    1  0  0
 1.159662643690496e-15    5    2  0  0
 -0.2921501679002591    5    3  0  0
 -2.369632268184318e-15    5    4  0  0
 -1.152664498448708    5    5  0  0
 -2.369632268184318e-15    6    1  0  0
 -0.04983184134166387    6    2  0  0
 5.315192730392937e-15    6    3  0  0
 -0.2411910406546903    6    4  0  0
 3.05311331771918e-15    6    5  0  0
 0.1427139504847763    6    6  0  0
 8.370621336370908  0  0  0  0
