 &FCI NORB=   6,NELEC= 6,MS2=0,
  ORBSYM=1,1,1,1,1,1,
  ISYM=1,
 &END
 0.2634656738951913    1    1    1    1
 -4.479056014972116e-15    1    1    2    1
 0.1993548711797127    1    1    2    2
 0.06044856671697484    1    1    3    1
 7.795847301039771e-15    1    1    3    2
 0.2438709852346146    1    1    3    3
 -3.934352843515398e-15    1    1    4    1
 0.04139886459301889    1    1    4    2
 -2.997602166487923e-15    1    1    4    3
 0.2456927177779037    1    1    4    4
 0.01164867044040641    1    1    5    1
 -1.582067810090848e-15    1    1    5    2
 -0.04270638354997311    1    1    5    3
 -4.034966805122053e-15    1    1    5    4
 0.2022462779359103    1    1    5    5
 -0.01275221642608944    1    1    6    2
 -1.790234627208065e-15    1    1    6    3
 0.06198582681156614    1    1    6    4
 8.316264343832813e-15    1    1    6    5
 0.2692366299647062    1    1    6    6
 -4.480790738448093e-15    2    1    1    1
 0.1088754693377128    2    1    2    1
 2.473715676742927e-15    2    1    2    2
 6.257147577848343e-15    2    1    3    1
 -0.09924987851753454    2    1    3    2
 2.310651670001107e-15    2    1    3    3
 0.03360657668160195    2    1    4    1
 2.498001805406602e-15    2    1    4    2
 0.04593540499466915    2    1    4    3
 -1.137978600240785e-15    2    1    5    1
 0.02083234460623311    2    1    5    2
 0.09955358773003969    2    1    5    4
 -5.80785419757035e-15    2    1    5    5
 0.001551266069172014    2    1    6    1
 0.03443985394865266    2    1    6    3
 3.09127723419067e-15    2    1    6    4
 -0.1125775963739513    2    1    6    5
 6.787972961497246e-15    2    1    6    6
 0.1993548711797127    2    2    1    1
 2.498001805406602e-15    2    2    2    1
 0.2644634363370498    2    2    2    2
 -0.06386584576690438    2    2    3    1
 -6.425415755018093e-15    2    2    3    2
 0.2071464415198416    2    2    3    3
 1.817990202823694e-15    2    2    4    1
 -0.007136874071299308    2    2    4    2
 2.42861286636753e-15    2    2    4    3
 0.2071765107922747    2    2    4    4
 0.02289495199333595    2    2    5    1
 0.006018079976116281    2    2    5    3
 2.733924198139448e-15    2    2    5    4
 0.2688293496143704    2    2    5    5
 -0.02367917990201276    2    2    6    2
 1.915134717478395e-15    2    2    6    3
 -0.06502466356171624    2    2    6    4
 -6.716849298982197e-15    2    2    6    5
 0.2049671224714898    2    2    6    6
 0.0604485667169748    3    1    1    1
 6.251943407420413e-15    3    1    2    1
 -0.06386584576690435    3    1    2    2
 0.1204374422240947    3    1    3    1
 1.585537257042802e-15    3    1    3    2
 0.03738368065866961    3    1    3    3
 -1.970645868709653e-15    3    1    4    1
 0.03951471006568558    3    1    4    2
 0.03910810371435484    3    1    4    4
 -0.01807834696971303    3    1    5    1
 -0.03967740706484253    3    1    5    3
 5.620504062164855e-15    3    1    5    4
 -0.06524422700654794    3    1    5    5
 -1.27675647831893e-15    3    1    6    1
 0.01779540776814015    3    1    6    2
 0.1230098767947308    3    1    6    4
 1.105018854197226e-15    3    1    6    5
 0.06065771974323693    3    1    6    6
 7.775030619328049e-15    3    2    1    1
 -0.09924987851753456    3    2    2    1
 -6.404599073306372e-15    3    2    2    2
 1.589006703994755e-15    3    2    3    1
 0.1119991345967135    3    2    3    2
 0.01462901532627889    3    2    4    1
 1.623701173514291e-15    3    2    4    2
 -0.03618670772767563    3    2    4    3
 2.595146320061303e-15    3    2    4    4
 0.01121762938082934    3    2    5    2
 -1.415534356397075e-15    3    2    5    3
 -0.112730529028601    3    2    5    4
 0.01584561734637128    3    2    6    1
 0.01407515859013239    3    2    6    3
 5.924080670460796e-15    3    2    6    4
 0.1027913496134438    3    2    6    5
 -1.93942084614207e-15    3    2    6    6
 0.2438709852346146    3    3    1    1
 2.314121116953061e-15    3    3    2    1
 0.2071464415198416    3    3    2    2
 0.03738368065866961    3    3    3    1
 0.2429536708125951    3    3    3    3
 0.002663935122297963    3    3    4    2
 0.2444886515581631    3    3    4    4
 -0.0147082055648357    3    3    5    1
 -0.003731697366074344    3    3    5    3
 2.456368441983159e-15    3    3    5    4
 0.2104518347988927    3    3    5    5
 0.01386184648243946    3    3    6    2
 0.03819455071421961    3    3    6    4
 0.2495717366494742    3    3    6    6
 -3.951700078275167e-15    4    1    1    1
 0.03360657668160195    4    1    2    1
 1.824929096727601e-15    4    1    2    2
 -1.963706974805746e-15    4    1    3    1
 0.0146290153262789    4    1    3    2
 0.1059619050206802    4    1    4    1
 0.02651405567111698    4    1    4    3
 -2.577799085301535e-15    4    1    5    1
 0.07010506667713665    4    1    5    2
 4.614364446098307e-15    4    1    5    3
 -0.0157347735035565    4    1    5    4
 -1.27675647831893e-15    4    1    5    5
 0.03722389338548337    4    1    6    1
 2.522287934070278e-15    4    1    6    2
 0.1070341624512333    4    1    6    3
 -0.03473206394257567    4    1    6    5
 0.04139886459301888    4    2    1    1
 2.501471252358556e-15    4    2    2    1
 -0.007136874071299301    4    2    2    2
 0.03951471006568557    4    2    3    1
 1.609823385706477e-15    4    2    3    2
 0.002663935122297953    4    2    3    3
 0.08224439525393185    4    2    4    2
 1.745131816832668e-15    4    2    4    3
 0.002575630684721445    4    2    4    4
 0.06038397951633669    4    2    5    1
 1.387778780781446e-15    4    2    5    2
 -0.08331287835297407    4    2    5    3
 -0.007688116803543549    4    2    5    5
 2.525757381022231e-15    4    2    6    1
 -0.06135383572547584    4    2    6    2
 4.975186929101483e-15    4    2    6    3
 0.04096723668529437    4    2    6    4
 0.04236838324581829    4    2    6    6
 -2.997602166487923e-15    4    3    1    1
 0.04593540499466916    4    3    2    1
 2.400857290751901e-15    4    3    2    2
 -0.03618670772767563    4    3    3    2
 0.02651405567111699    4    3    4    1
 1.748601263784622e-15    4    3    4    2
 0.1046436014843235    4    3    4    3
 3.826799988004836e-15    4    3    5    1
 -0.06727107479970965    4    3    5    2
 1.644517855226013e-15    4    3    5    3
 0.03662310179652008    4    3    5    4
 -1.845745778439323e-15    4    3    5    5
 0.08917384633774839    4    3    6    1
 4.198030811863873e-15    4    3    6    2
 0.02573098111830206    4    3    6    3
 -0.04767048123314284    4    3    6    5
 2.060851489460447e-15    4    3    6    6
 0.2456927177779037    4    4    1    1
 0.2071765107922747    4    4    2    2
 0.03910810371435485    4    4    3    1
 2.602085213965211e-15    4    4    3    2
 0.2444886515581631    4    4    3    3
 0.002575630684721459    4    4    4    2
 0.2469725861180651    4    4    4    4
 -0.0156525130382441    4    4    5    1
 -0.003186669363175847    4    4    5    3
 0.2107763424233279    4    4    5    5
 0.01517318011399226    4    4    6    2
 0.04007520061946594    4    4    6    4
 1.925543058334256e-15    4    4    6    5
 0.2516126967073943    4    4    6    6
 0.0116486704404064    5    1    1    1
 -1.144917494144693e-15    5    1    2    1
 0.02289495199333593    5    1    2    2
 -0.01807834696971303    5    1    3    1
 -0.01470820556483571    5    1    3    3
 -2.556982403589814e-15    5    1    4    1
 0.06038397951633669    5    1    4    2
 3.820728455838918e-15    5    1    4    3
 -0.01565251303824411    5    1    4    4
 0.06621162407465163    5    1    5    1
 -4.041905699025961e-15    5    1    5    2
 -0.06135986920039412    5    1    5    3
 0.02307901142516442    5    1    5    5
 4.559720656605037e-15    5    1    6    1
 -0.06703723674525845    5    1    6    2
 1.000935445638618e-15    5    1    6    3
 -0.01798418550022231    5    1    6    4
 0.01245923056784344    5    1    6    6
 -1.56472057533108e-15    5    2    1    1
 0.02083234460623311    5    2    2    1
 0.01121762938082933    5    2    3    2
 0.07010506667713665    5    2    4    1
 1.373900992973631e-15    5    2    4    2
 -0.06727107479970965    5    2    4    3
 -4.038436252074007e-15    5    2    5    1
 0.1313989604742996    5    2    5    2
 -0.01253756052907859    5    2    5    4
 -0.05962812793742912    5    2    6    1
 -4.305583667374435e-15    5    2    6    2
 0.07225414148841336    5    2    6    3
 -0.02153919921757559    5    2    6    5
 1.193489751472043e-15    5    2    6    6
 -0.0427063835499731    5    3    1    1
 0.006018079976116263    5    3    2    2
 -0.03967740706484253    5    3    3    1
 -1.429412144204889e-15    5    3    3    2
 -0.003731697366074363    5    3    3    3
 4.603956105242446e-15    5    3    4    1
 -0.08331287835297407    5    3    4    2
 1.649722025653944e-15    5    3    4    3
 -0.003186669363175869    5    3    4    4
 -0.06135986920039411    5    3    5    1
 0.08470879858862264    5    3    5    3
 -1.255939796607208e-15    5    3    5    4
 0.006581671171221298    5    3    5    5
 1.137978600240785e-15    5    3    6    1
 0.06258888698209983    5    3    6    2
 -0.04113206101823175    5    3    6    4
 -1.790234627208065e-15    5    3    6    5
 -0.04390071863386592    5    3    6    6
 -4.026293187742169e-15    5    4    1    1
 0.09955358773003972    5    4    2    1
 2.740863092043355e-15    5    4    2    2
 5.622238785640832e-15    5    4    3    1
 -0.112730529028601    5    4    3    2
 2.449429548079252e-15    5    4    3    3
 -0.01573477350355652    5    4    4    1
 0.0366231017965201    5    4    4    3
 -0.01253756052907863    5    4    5    2
 -1.255939796607208e-15    5    4    5    3
 0.1140675736564992    5    4    5    4
 -4.572731082674864e-15    5    4    5    5
 -0.01591488655404258    5    4    6    1
 -0.0155466993755929    5    4    6    3
 1.410330185969144e-15    5    4    6    4
 -0.103288854957217    5    4    6    5
 5.72632219419944e-15    5    4    6    6
 0.2022462779359103    5    5    1    1
 -5.80785419757035e-15    5    5    2    1
 0.2688293496143704    5    5    2    2
 -0.06524422700654792    5    5    3    1
 0.2104518347988927    5    5    3    3
 -1.294103713078698e-15    5    5    4    1
 -0.007688116803543553    5    5    4    2
 -1.859623566247137e-15    5    5    4    3
 0.210776342423328    5    5    4    4
 0.0230790114251644    5    5    5    1
 0.006581671171221347    5    5    5    3
 -4.579669976578771e-15    5    5    5    4
 0.2740684950364206    5    5    5    5
 -0.02387251231956978    5    5    6    2
 -1.269817584415023e-15    5    5    6    3
 -0.06684146219016404    5    5    6    4
 1.804112415015879e-15    5    5    6    5
 0.2084092218318822    5    5    6    6
 0.001551266069172037    6    1    2    1
 -1.283695372222837e-15    6    1    3    1
 0.01584561734637127    6    1    3    2
 0.03722389338548339    6    1    4    1
 2.524022657546254e-15    6    1    4    2
 0.08917384633774839    6    1    4    3
 4.568394273984921e-15    6    1    5    1
 -0.05962812793742911    6    1    5    2
 1.139713323716762e-15    6    1    5    3
 -0.01591488655404258    6    1    5    4
 0.09805303422073769    6    1    6    1
 3.694961003830599e-15    6    1    6    2
 0.03630509779592453    6    1    6    3
 -0.001667716921174481    6    1    6    5
 -0.01275221642608943    6    2    1    1
 -0.02367917990201274    6    2    2    2
 0.01779540776814013    6    2    3    1
 0.01386184648243946    6    2    3    3
 2.517083763642347e-15    6    2    4    1
 -0.06135383572547583    6    2    4    2
 4.201500258815827e-15    6    2    4    3
 0.01517318011399227    6    2    4    4
 -0.06703723674525844    6    2    5    1
 -4.295175326518574e-15    6    2    5    2
 0.06258888698209983    6    2    5    3
 -0.02387251231956975    6    2    5    5
 3.68888947166468e-15    6    2    6    1
 0.06807034401211093    6    2    6    2
 -1.235123114895487e-15    6    2    6    3
 0.0177302681385163    6    2    6    4
 -0.01372226824121118    6    2    6    6
 -1.817990202823694e-15    6    3    1    1
 0.03443985394865265    6    3    2    1
 1.929012505286209e-15    6    3    2    2
 0.0140751585901324    6    3    3    2
 0.1070341624512333    6    3    4    1
 4.975186929101483e-15    6    3    4    2
 0.02573098111830206    6    3    4    3
 0.07225414148841336    6    3    5    2
 -0.01554669937559289    6    3    5    4
 -1.27675647831893e-15    6    3    5    5
 0.03630509779592455    6    3    6    1
 -1.231653667943533e-15    6    3    6    2
 0.1085422700418206    6    3    6    3
 1.415534356397075e-15    6    3    6    4
 -0.03581163584676084    6    3    6    5
 2.96637714392034e-15    6    3    6    6
 0.06198582681156613    6    4    1    1
 3.103420298522508e-15    6    4    2    1
 -0.06502466356171623    6    4    2    2
 0.1230098767947308    6    4    3    1
 5.918876500032866e-15    6    4    3    2
 0.03819455071421965    6    4    3    3
 0.04096723668529439    6    4    4    2
 0.04007520061946596    6    4    4    4
 -0.01798418550022231    6    4    5    1
 -0.04113206101823176    6    4    5    3
 1.422473250300982e-15    6    4    5    4
 -0.06684146219016406    6    4    5    5
 0.0177302681385163    6    4    6    2
 1.394717674685353e-15    6    4    6    3
 0.1262242162452907    6    4    6    4
 4.546710230535211e-15    6    4    6    5
 0.06244062846672627    6    4    6    6
 8.304121279500976e-15    6    5    1    1
 -0.1125775963739513    6    5    2    1
 -6.689093723366568e-15    6    5    2    2
 1.096345236817342e-15    6    5    3    1
 0.1027913496134438    6    5    3    2
 -0.03473206394257568    6    5    4    1
 -0.04767048123314285    6    5    4    3
 1.929012505286209e-15    6    5    4    4
 -0.02153919921757557    6    5    5    2
 -1.811051308919787e-15    6    5    5    3
 -0.103288854957217    6    5    5    4
 1.817990202823694e-15    6    5    5    5
 -0.001667716921174496    6    5    6    1
 -0.03581163584676081    6    5    6    3
 4.541506060107281e-15    6    5    6    4
 0.1170218848671648    6    5    6    5
 -3.342812138207307e-15    6    5    6    6
 0.2692366299647062    6    6    1    1
 6.786238238021269e-15    6    6    2    1
 0.2049671224714898    6    6    2    2
 0.06065771974323696    6    6    3    1
 -1.93942084614207e-15    6    6    3    2
 0.2495717366494742    6    6    3    3
 0.04236838324581829    6    6    4    2
 2.026157019940911e-15    6    6    4    3
 0.2516126967073943    6    6    4    4
 0.01245923056784344    6    6    5    1
 1.193489751472043e-15    6    6    5    2
 -0.04390071863386589    6    6    5    3
 5.72111802377151e-15    6    6    5    4
 0.2084092218318821    6    6    5    5
 -0.0137222682412112    6    6    6    2
 2.955968803064479e-15    6    6    6    3
 0.06244062846672627    6    6    6    4
 -3.354955202539145e-15    6    6    6    5
 0.276194758667177    6    6    6    6
 -1.16999555303097    1    1  0  0
 -2.275957200481571e-15    2    1  0  0
 -1.080372386898892    2    2  0  0
 -0.06935036587139121    3    1  0  0
 -2.442490654175344e-15    3    2  0  0
 -1.102316617173927    3    3  0  0
 2.761679773755077e-15    4    1  0  0
 -0.08356859931324817    4    2  0  0
 -1.083824184556536    4    4  0  0
 -0.04686703096345246    5    1  0  0
 0.07024772705743781    5    3  0  0
 -2.109423746787797e-15    5    4  0  0
 -1.023410212197116    5    5  0  0
 0.03708641841228227    6    2  0  0
 -1.817990202823694e-15    6    3  0  0
 -0.06871032496625484    6    4  0  0
 -1.387778780781446e-15    6    5  0  0
 -1.084895243366419    6    6  0  0
 1.879119075511837  0  0  0  0
