 &FCI NORB=   6,NELEC= 6,MS2=0,
  ORBSYM=1,1,1,1,1,1,
  ISYM=1,
 &END
 0.3618104047057082    1    1    1    1
 0.2879493539790863    1    1    2    2
 -0.07089597523337797    1    1    3    1
 0.3122274153496902    1    1    3    3
 0.06663937289037215    1    1    4    2
 0.3156887416086244    1    1    4    4
 0.007427243772926254    1    1    5    1
 0.06885491106483423    1    1    5    3
 0.2979730673444443    1    1    5    5
 0.00852000578275018    1    1    6    2
 -0.07369114809035968    1    1    6    4
 0.3802617121552244    1    1    6    6
 0.1250771994220879    2    1    2    1
 0.0970967137218357    2    1    3    2
 0.04616014936521285    2    1    4    1
 -0.07404222641627048    2    1    4    3
 0.03728731688771789    2    1    5    2
 0.09890057084158643    2    1    5    4
 -0.0009090025367533049    2    1    6    1
 0.04708932055128475    2    1    6    3
 0.1294744032994526    2    1    6    5
 0.2879493539790864    2    2    1    1
 0.326595544325173    2    2    2    2
 0.03765229687971278    2    2    3    1
 0.2910564948898224    2    2    3    3
 0.004072648458235892    2    2    4    2
 0.2934234326954422    2    2    4    4
 0.03348103331111953    2    2    5    1
 0.005896286763901346    2    2    5    3
 0.3332399743605736    2    2    5    5
 0.03445487110349343    2    2    6    2
 0.03435658635917862    2    2    6    4
 0.3040146644900984    2    2    6    6
 -0.07089597523337797    3    1    1    1
 0.03765229687971279    3    1    2    2
 0.1052084332308538    3    1    3    1
 -0.02348956737465315    3    1    3    3
 -0.05639481292472102    3    1    4    2
 -0.02378216957658924    3    1    4    4
 0.02930749737857577    3    1    5    1
 -0.05757646360013036    3    1    5    3
 0.03400795765347108    3    1    5    5
 0.02865342828045852    3    1    6    2
 0.1048976753531506    3    1    6    4
 -0.0743258087177207    3    1    6    6
 0.0970967137218357    3    2    2    1
 0.1193553883428329    3    2    3    2
 -0.01789081118210237    3    2    4    1
 -0.07012452118382889    3    2    4    3
 -0.003321807682056033    3    2    5    2
 0.1171713840815105    3    2    5    4
 0.0235314253864704    3    2    6    1
 -0.01379037147334529    3    2    6    3
 0.1026265180236505    3    2    6    5
 0.3122274153496902    3    3    1    1
 0.2910564948898224    3    3    2    2
 -0.02348956737465315    3    3    3    1
 0.316521425552568    3    3    3    3
 0.0004333933230023373    3    3    4    2
 0.3141501738390067    3    3    4    4
 -0.01793303445266491    3    3    5    1
 0.006578608318360445    3    3    5    3
 0.3011349322732683    3    3    5    5
 -0.01381185325559431    3    3    6    2
 -0.02481641654284825    3    3    6    4
 0.3307480897366149    3    3    6    6
 0.04616014936521284    4    1    2    1
 -0.01789081118210238    4    1    3    2
 0.08328142189026622    4    1    4    1
 -0.01202509899505641    4    1    4    3
 0.05402785097569381    4    1    5    2
 -0.01372093947589622    4    1    5    4
 -0.03045967531657402    4    1    6    1
 0.08109373704813477    4    1    6    3
 0.04699393530654471    4    1    6    5
 0.06663937289037217    4    2    1    1
 0.004072648458235871    4    2    2    2
 -0.05639481292472102    4    2    3    1
 0.0004333933230023413    4    2    3    3
 0.08342618282636231    4    2    4    2
 0.005787482776089942    4    2    4    4
 0.03466287719635867    4    2    5    1
 0.08091039412443135    4    2    5    3
 0.005306010450815649    4    2    5    5
 0.03251525841398007    4    2    6    2
 -0.05916075396565176    4    2    6    4
 0.07084668677507133    4    2    6    6
 -0.07404222641627051    4    3    2    1
 -0.07012452118382889    4    3    3    2
 -0.01202509899505638    4    3    4    1
 0.1041258833479518    4    3    4    3
 0.04489990551693138    4    3    5    2
 -0.07220349424076036    4    3    5    4
 0.05260792575854817    4    3    6    1
 -0.0125096802101784    4    3    6    3
 -0.07892364030543939    4    3    6    5
 0.3156887416086244    4    4    1    1
 0.2934234326954421    4    4    2    2
 -0.02378216957658923    4    4    3    1
 0.3141501738390067    4    4    3    3
 0.005787482776089932    4    4    4    2
 0.3232115006843081    4    4    4    4
 -0.01393190019615856    4    4    5    1
 0.003889522310855889    4    4    5    3
 0.3060407584334737    4    4    5    5
 -0.01592495263724716    4    4    6    2
 -0.02591215223727083    4    4    6    4
 0.3365143802455209    4    4    6    6
 0.007427243772926235    5    1    1    1
 0.0334810333111195    5    1    2    2
 0.02930749737857576    5    1    3    1
 -0.01793303445266492    5    1    3    3
 0.03466287719635867    5    1    4    2
 -0.01393190019615855    5    1    4    4
 0.05626213228176757    5    1    5    1
 0.03190356172021865    5    1    5    3
 0.03302548203079587    5    1    5    5
 0.05437667876765308    5    1    6    2
 0.02804547490088636    5    1    6    4
 0.008185241650523686    5    1    6    6
 0.03728731688771787    5    2    2    1
 -0.003321807682056034    5    2    3    2
 0.05402785097569381    5    2    4    1
 0.04489990551693138    5    2    4    3
 0.09520562128709081    5    2    5    2
 -0.003125371784514126    5    2    5    4
 0.0416562355489686    5    2    6    1
 0.05522440295627681    5    2    6    3
 0.03861901877947692    5    2    6    5
 0.06885491106483421    5    3    1    1
 0.005896286763901332    5    3    2    2
 -0.05757646360013038    5    3    3    1
 0.006578608318360449    5    3    3    3
 0.08091039412443135    5    3    4    2
 0.003889522310855884    5    3    4    4
 0.03190356172021865    5    3    5    1
 0.08480168505466613    5    3    5    3
 0.006806179912132442    5    3    5    5
 0.03450655516831601    5    3    6    2
 -0.06034811620437169    5    3    6    4
 0.07476911554825905    5    3    6    6
 0.09890057084158645    5    4    2    1
 0.1171713840815105    5    4    3    2
 -0.01372093947589623    5    4    4    1
 -0.07220349424076036    5    4    4    3
 -0.003125371784514129    5    4    5    2
 0.1234395531459331    5    4    5    4
 0.02217424044961294    5    4    6    1
 -0.01546394423495791    5    4    6    3
 0.1063776281363807    5    4    6    5
 0.2979730673444443    5    5    1    1
 0.3332399743605736    5    5    2    2
 0.03400795765347108    5    5    3    1
 0.3011349322732683    5    5    3    3
 0.005306010450815635    5    5    4    2
 0.3060407584334737    5    5    4    4
 0.03302548203079587    5    5    5    1
 0.006806179912132414    5    5    5    3
 0.3505346669585443    5    5    5    5
 0.03461431611631748    5    5    6    2
 0.03663232258897851    5    5    6    4
 0.3202485840314999    5    5    6    6
 -0.0009090025367533088    6    1    2    1
 0.02353142538647039    6    1    3    2
 -0.03045967531657399    6    1    4    1
 0.05260792575854815    6    1    4    3
 0.04165623554896859    6    1    5    2
 0.02217424044961292    6    1    5    4
 0.07584264736348043    6    1    6    1
 -0.02953815005148074    6    1    6    3
 -0.001067777059713742    6    1    6    5
 0.008520005782750186    6    2    1    1
 0.03445487110349341    6    2    2    2
 0.02865342828045851    6    2    3    1
 -0.01381185325559429    6    2    3    3
 0.03251525841398006    6    2    4    2
 -0.01592495263724714    6    2    4    4
 0.05437667876765306    6    2    5    1
 0.03450655516831599    6    2    5    3
 0.03461431611631747    6    2    5    5
 0.05620029366976374    6    2    6    2
 0.02857659059327815    6    2    6    4
 0.009913520850785711    6    2    6    6
 0.04708932055128475    6    3    2    1
 -0.01379037147334527    6    3    3    2
 0.08109373704813477    6    3    4    1
 -0.0125096802101784    6    3    4    3
 0.05522440295627681    6    3    5    2
 -0.0154639442349579    6    3    5    4
 -0.02953815005148073    6    3    6    1
 0.08492153711233888    6    3    6    3
 0.05059250862299036    6    3    6    5
 -0.07369114809035962    6    4    1    1
 0.03435658635917863    6    4    2    2
 0.1048976753531505    6    4    3    1
 -0.02481641654284827    6    4    3    3
 -0.05916075396565177    6    4    4    2
 -0.02591215223727079    6    4    4    4
 0.02804547490088635    6    4    5    1
 -0.06034811620437169    6    4    5    3
 0.0366323225889785    6    4    5    5
 0.02857659059327815    6    4    6    2
 0.1122914521830264    6    4    6    4
 -0.08066077582772088    6    4    6    6
 0.1294744032994526    6    5    2    1
 0.1026265180236505    6    5    3    2
 0.04699393530654469    6    5    4    1
 -0.07892364030543941    6    5    4    3
 0.0386190187794769    6    5    5    2
 0.1063776281363807    6    5    5    4
 -0.001067777059713738    6    5    6    1
 0.05059250862299036    6    5    6    3
 0.1425188232017237    6    5    6    5
 0.3802617121552244    6    6    1    1
 0.3040146644900983    6    6    2    2
 -0.07432580871772068    6    6    3    1
 0.3307480897366148    6    6    3    3
 0.07084668677507132    6    6    4    2
 0.3365143802455209    6    6    4    4
 0.00818524165052369    6    6    5    1
 0.07476911554825902    6    6    5    3
 0.3202485840314999    6    6    5    5
 0.00991352085078572    6    6    6    2
 -0.08066077582772078    6    6    6    4
 0.4141872573955061    6    6    6    6
 -1.836574702336338    1    1  0  0
 -1.660470887632987    2    2  0  0
 0.1161776622032431    3    1  0  0
 -1.583836975938849    3    3  0  0
 -0.1621825527578684    4    2  0  0
 1.110223024625157e-15    4    3  0  0
 -1.45999871672821    4    4  0  0
 -0.05881238816531434    5    1  0  0
 -0.1300953140154738    5    3  0  0
 -1.294621560551669    5    5  0  0
 -0.03857054997210843    6    2  0  0
 0.1178478590293165    6    4  0  0
 -1.280966812301056    6    6  0  0
 3.410253137039999  0  0  0  0
