 &FCI NORB=   6,NELEC= 6,MS2=0,
  ORBSYM=1,1,1,1,1,1,
  ISYM=1,
 &END
 0.4419583727800153    1    1    1    1
 0.3576142243936452    1    1    2    2
 -0.08140661749971051    1    1    3    1
 0.3740068051377712    1    1    3    3
 0.08229370317822307    1    1    4    2
 0.381328266872199    1    1    4    4
 0.003949969770740832    1    1    5    1
 0.08565124669427268    1    1    5    3
 0.3789517266829382    1    1    5    5
 -0.005677890382088302    1    1    6    2
 0.08450040518279466    1    1    6    4
 0.4734389049109084    1    1    6    6
 0.1342658795834194    2    1    2    1
 0.1019375426332122    2    1    3    2
 0.05212518960074553    2    1    4    1
 -0.08529234665229646    2    1    4    3
 0.04516616383854687    2    1    5    2
 0.1059206028957266    2    1    5    4
 0.001951221082591017    2    1    6    1
 -0.05174100910008674    2    1    6    3
 -0.1374228444520394    2    1    6    5
 0.3576142243936452    2    2    1    1
 0.3874539311514694    2    2    2    2
 0.02640899201910824    2    2    3    1
 0.3568963680198    2    2    3    3
 0.01472497739602196    2    2    4    2
 0.3620915763210902    2    2    4    4
 0.03693055439082924    2    2    5    1
 0.01644301562967166    2    2    5    3
 0.3959706237066341    2    2    5    5
 -0.0373112374367998    2    2    6    2
 -0.01844181388117248    2    2    6    4
 0.3848130123942292    2    2    6    6
 -0.08140661749971054    3    1    1    1
 0.02640899201910826    3    1    2    2
 0.1022637768016912    3    1    3    1
 -0.02088372058337    3    1    3    3
 -0.06115739085604294    3    1    4    2
 -0.02186963412683906    3    1    4    4
 0.03411920998667916    3    1    5    1
 -0.06401233417360314    3    1    5    3
 0.01338842227861659    3    1    5    5
 -0.03200593631979903    3    1    6    2
 -0.0980947677641982    3    1    6    4
 -0.08791741111919538    3    1    6    6
 0.1019375426332122    3    2    2    1
 0.1278308472012378    3    2    3    2
 -0.01455390439758354    3    2    4    1
 -0.08705176126166975    3    2    4    3
 0.002807990573693006    3    2    5    2
 0.1206929629850033    3    2    5    4
 -0.02477565051932993    3    2    6    1
 0.007059553226683018    3    2    6    3
 -0.1074850375512657    3    2    6    5
 0.3740068051377712    3    3    1    1
 0.3568963680198    3    3    2    2
 -0.02088372058336999    3    3    3    1
 0.3804341929736367    3    3    3    3
 0.003082881861663098    3    3    4    2
 0.3744728940873338    3    3    4    4
 -0.01585029154349211    3    3    5    1
 0.01526652764309328    3    3    5    3
 0.37350877056923    3    3    5    5
 0.00763375896312783    3    3    6    2
 0.0238850178973137    3    3    6    4
 0.4048951525619784    3    3    6    6
 0.05212518960074553    4    1    2    1
 -0.01455390439758355    4    1    3    2
 0.07892817100327892    4    1    4    1
 -0.009440589228302    4    1    4    3
 0.05209263400675539    4    1    5    2
 -0.0026959142322876    4    1    5    4
 0.02959539546632145    4    1    6    1
 -0.07214527218755082    4    1    6    3
 -0.05257259838466571    4    1    6    5
 0.08229370317822308    4    2    1    1
 0.01472497739602196    4    2    2    2
 -0.06115739085604294    4    2    3    1
 0.003082881861663073    4    2    3    3
 0.08734326806430727    4    2    4    2
 0.01651935069460203    4    2    4    4
 0.02668801363675627    4    2    5    1
 0.08008073364607475    4    2    5    3
 0.0222725470821708    4    2    5    5
 -0.02114129130659554    4    2    6    2
 0.06304512359456907    4    2    6    4
 0.09057792285766689    4    2    6    6
 -0.08529234665229646    4    3    2    1
 -0.08705176126166972    4    3    3    2
 -0.009440589228301995    4    3    4    1
 0.1091824554378623    4    3    4    3
 0.03165841410120029    4    3    5    2
 -0.08797100383236824    4    3    5    4
 -0.03826285999222011    4    3    6    1
 0.01089222083159305    4    3    6    3
 0.09098230051650838    4    3    6    5
 0.381328266872199    4    4    1    1
 0.3620915763210901    4    4    2    2
 -0.02186963412683907    4    4    3    1
 0.3744728940873338    4    4    3    3
 0.01651935069460204    4    4    4    2
 0.3898161573506411    4    4    4    4
 -0.005086456375379023    4    4    5    1
 0.01234505000854377    4    4    5    3
 0.382708705757069    4    4    5    5
 0.009533985990765355    4    4    6    2
 0.02602601553483665    4    4    6    4
 0.4165271845846046    4    4    6    6
 0.003949969770740774    5    1    1    1
 0.03693055439082923    5    1    2    2
 0.03411920998667915    5    1    3    1
 -0.01585029154349211    5    1    3    3
 0.02668801363675624    5    1    4    2
 -0.005086456375379004    5    1    4    4
 0.05566987164285561    5    1    5    1
 0.01796595969083743    5    1    5    3
 0.03441476793208369    5    1    5    5
 -0.04959284996042267    5    1    6    2
 -0.03128486091851163    5    1    6    4
 0.004612692670110388    5    1    6    6
 0.04516616383854687    5    2    2    1
 0.002807990573693004    5    2    3    2
 0.05209263400675537    5    2    4    1
 0.03165841410120029    5    2    4    3
 0.08450396353053287    5    2    5    2
 0.007609748648916392    5    2    5    4
 -0.032756004925483    5    2    6    1
 -0.05126381807069976    5    2    6    3
 -0.04703347921003691    5    2    6    5
 0.08565124669427271    5    3    1    1
 0.01644301562967171    5    3    2    2
 -0.06401233417360311    5    3    3    1
 0.01526652764309329    5    3    3    3
 0.08008073364607474    5    3    4    2
 0.01234505000854383    5    3    4    4
 0.0179659596908374    5    3    5    1
 0.08675142294967138    5    3    5    3
 0.02414087766007525    5    3    5    5
 -0.02300864990883617    5    3    6    2
 0.0656982146238477    5    3    6    4
 0.09698596046159741    5    3    6    6
 0.1059206028957266    5    4    2    1
 0.1206929629850033    5    4    3    2
 -0.002695914232287609    5    4    4    1
 -0.08797100383236825    5    4    4    3
 0.007609748648916382    5    4    5    2
 0.1300305137691651    5    4    5    4
 -0.02183937702846815    5    4    6    1
 0.00686259179637589    5    4    6    3
 -0.1143028041018873    5    4    6    5
 0.378951726682938    5    5    1    1
 0.3959706237066341    5    5    2    2
 0.01338842227861656    5    5    3    1
 0.37350877056923    5    5    3    3
 0.02227254708217081    5    5    4    2
 0.3827087057570692    5    5    4    4
 0.03441476793208359    5    5    5    1
 0.02414087766007519    5    5    5    3
 0.4250698339286845    5    5    5    5
 -0.03678187860925612    5    5    6    2
 -0.01627496896444569    5    5    6    4
 0.4186956476093331    5    5    6    6
 0.001951221082591014    6    1    2    1
 -0.02477565051932992    6    1    3    2
 0.02959539546632148    6    1    4    1
 -0.03826285999222019    6    1    4    3
 -0.03275600492548304    6    1    5    2
 -0.0218393770284682    6    1    5    4
 0.0683174055089536    6    1    6    1
 -0.02789255851605038    6    1    6    3
 -0.002304317271464323    6    1    6    5
 -0.005677890382088285    6    2    1    1
 -0.0373112374367998    6    2    2    2
 -0.03200593631979902    6    2    3    1
 0.007633758963127874    6    2    3    3
 -0.02114129130659553    6    2    4    2
 0.009533985990765388    6    2    4    4
 -0.04959284996042268    6    2    5    1
 -0.02300864990883619    6    2    5    3
 -0.03678187860925624    6    2    5    5
 0.05207065560942399    6    2    6    2
 0.03188661818604066    6    2    6    4
 -0.007101416305380246    6    2    6    6
 -0.05174100910008672    6    3    2    1
 0.007059553226683056    6    3    3    2
 -0.07214527218755086    6    3    4    1
 0.01089222083159311    6    3    4    3
 -0.05126381807069977    6    3    5    2
 0.006862591796375949    6    3    5    4
 -0.02789255851605037    6    3    6    1
 0.07690074715522514    6    3    6    3
 0.05720792352136696    6    3    6    5
 0.08450040518279467    6    4    1    1
 -0.01844181388117246    6    4    2    2
 -0.09809476776419815    6    4    3    1
 0.02388501789731374    6    4    3    3
 0.06304512359456907    6    4    4    2
 0.0260260155348367    6    4    4    4
 -0.03128486091851165    6    4    5    1
 0.06569821462384773    6    4    5    3
 -0.01627496896444575    6    4    5    5
 0.03188661818604065    6    4    6    2
 0.1075724815952089    6    4    6    4
 0.09815628102352181    6    4    6    6
 -0.1374228444520394    6    5    2    1
 -0.1074850375512657    6    5    3    2
 -0.05257259838466578    6    5    4    1
 0.09098230051650838    6    5    4    3
 -0.04703347921003695    6    5    5    2
 -0.1143028041018873    6    5    5    4
 -0.002304317271464253    6    5    6    1
 0.05720792352136689    6    5    6    3
 0.1565411671414532    6    5    6    5
 0.4734389049109081    6    6    1    1
 0.3848130123942292    6    6    2    2
 -0.08791741111919529    6    6    3    1
 0.4048951525619783    6    6    3    3
 0.09057792285766696    6    6    4    2
 0.4165271845846046    6    6    4    4
 0.004612692670110404    6    6    5    1
 0.09698596046159752    6    6    5    3
 0.4186956476093333    6    6    5    5
 -0.007101416305380287    6    6    6    2
 0.0981562810235217    6    6    6    4
 0.5378731258265159    6    6    6    6
 -2.364383314095907    1    1  0  0
 -2.110107140621021    2    2  0  0
 0.1514098984087875    3    1  0  0
 -1.942674013852033    3    3  0  0
 -0.2204047195672641    4    2  0  0
 -1.711633335313038    4    4  0  0
 -0.0649566657249572    5    1  0  0
 -1.40165656858926e-15    5    2  0  0
 -0.1825278519177023    5    3  0  0
 -1.221245327087672e-15    5    4  0  0
 -1.392130171730771    5    5  0  0
 1.647987302177967e-15    6    1  0  0
 0.04241027688694991    6    2  0  0
 -0.1605408945499693    6    4  0  0
 -1.175048479674691    6    6  0  0
 4.846149194741052  0  0  0  0
