 &FCI NORB=   6,NELEC= 6,MS2=0,
  ORBSYM=1,1,1,1,1,1,
  ISYM=1,
 &END
 0.2806885024976201    1    1    1    1
 0.2151422145435893    1    1    2    2
 0.06198090343610498    1    1    3    1
 0.2543884253887237    1    1    3    3
 0.0478879009090727    1    1    4    2
 0.2564738996491296    1    1    4    4
 0.01089447064045607    1    1    5    1
 -0.04943900738368756    1    1    5    3
 0.2192003212189587    1    1    5    5
 -0.01204635129034647    1    1    6    2
 0.06399954438115794    1    1    6    4
 1.1518563880486e-15    1    1    6    5
 0.2889777646292587    1    1    6    6
 0.1117946118787122    2    1    2    1
 -0.09705295314006351    2    1    3    2
 0.03759692660090775    2    1    4    1
 0.05379474747387942    2    1    4    3
 0.02572217516986601    2    1    5    2
 0.09766858144722804    2    1    5    4
 -1.956768080901838e-15    2    1    5    5
 0.0009522810964813413    2    1    6    1
 0.03869738114258938    2    1    6    3
 -0.1162215677233789    2    1    6    5
 2.116362640691705e-15    2    1    6    6
 0.2151422145435893    2    2    1    1
 0.2728341230387563    2    2    2    2
 -0.0568900289109965    2    2    3    1
 0.2226853271039293    2    2    3    3
 -0.005682493967568994    2    2    4    2
 0.2232287595958377    2    2    4    4
 0.02673265181099481    2    2    5    1
 0.004317691294462793    2    2    5    3
 0.2783500803912604    2    2    5    5
 -0.02771016529486291    2    2    6    2
 -0.05780808798852968    2    2    6    4
 -1.332267629550188e-15    2    2    6    5
 0.2225971082968636    2    2    6    6
 0.06198090343610498    3    1    1    1
 -0.05689002891099651    3    1    2    2
 0.1154402917852152    3    1    3    1
 0.03302587376933071    3    1    3    3
 0.04513918466027008    3    1    4    2
 0.03441044016203092    3    1    4    4
 -0.02195182714974279    3    1    5    1
 -0.04540562203344664    3    1    5    3
 1.304512053934559e-15    3    1    5    4
 -0.05820802856868251    3    1    5    5
 0.02172814351051101    3    1    6    2
 0.118257816505477    3    1    6    4
 0.06297058813106532    3    1    6    6
 -0.09705295314006351    3    2    2    1
 0.1131552253471868    3    2    3    2
 0.01725527434863552    3    2    4    1
 -0.04452865323757387    3    2    4    3
 0.0101432020757355    3    2    5    2
 -0.1140941893755621    3    2    5    4
 1.582067810090848e-15    3    2    5    5
 0.01922933592976415    3    2    6    1
 0.0163818142146155    3    2    6    3
 1.261143967035139e-15    3    2    6    4
 0.1013386456252975    3    2    6    5
 -1.235123114895487e-15    3    2    6    6
 0.2543884253887237    3    3    1    1
 0.2226853271039293    3    3    2    2
 0.03302587376933069    3    3    3    1
 0.2551012023700348    3    3    3    3
 0.00115751294530959    3    3    4    2
 0.2565145951327285    3    3    4    4
 -0.0173796259564239    3    3    5    1
 -0.002709753958416678    3    3    5    3
 0.2274073068566382    3    3    5    5
 0.016262858664304    3    3    6    2
 0.03391173036827251    3    3    6    4
 0.2625530440846821    3    3    6    6
 0.03759692660090776    4    1    2    1
 0.01725527434863551    4    1    3    2
 0.09926338405016905    4    1    4    1
 0.02212634224730987    4    1    4    3
 0.06509911927469633    4    1    5    2
 1.067722299463725e-15    4    1    5    3
 -0.01814397650366862    4    1    5    4
 0.03535771508274978    4    1    6    1
 0.1004093928357221    4    1    6    3
 -0.03889706345402232    4    1    6    5
 0.04788790090907274    4    2    1    1
 -0.005682493967568997    4    2    2    2
 0.04513918466027009    4    2    3    1
 0.001157512945309599    4    2    3    3
 0.08255949107539559    4    2    4    2
 0.001358292440733346    4    2    4    4
 0.0533975991966455    4    2    5    1
 -0.08349009857902313    4    2    5    3
 -0.006400953674945791    4    2    5    5
 -0.05414865879476349    4    2    6    2
 0.04721051999090994    4    2    6    4
 0.04943980093484338    4    2    6    6
 0.0537947474738794    4    3    2    1
 -0.04452865323757386    4    3    3    2
 0.02212634224730987    4    3    4    1
 0.1038380798229824    4    3    4    3
 -0.06338084803580867    4    3    5    2
 0.04551426768130075    4    3    5    4
 0.08027195849170776    4    3    6    1
 0.02160839137254313    4    3    6    3
 -0.05633881424870717    4    3    6    5
 1.040834085586084e-15    4    3    6    6
 0.2564738996491296    4    4    1    1
 0.2232287595958377    4    4    2    2
 0.03441044016203089    4    4    3    1
 0.2565145951327285    4    4    3    3
 0.001358292440733332    4    4    4    2
 0.2600330293545501    4    4    4    4
 -0.01812337987967725    4    4    5    1
 -0.001757405463764444    4    4    5    3
 0.2285773809236107    4    4    5    5
 0.01790901268232925    4    4    6    2
 0.03556641924769788    4    4    6    4
 0.2651170016211052    4    4    6    6
 0.01089447064045608    5    1    1    1
 0.0267326518109948    5    1    2    2
 -0.0219518271497428    5    1    3    1
 -0.01737962595642391    5    1    3    3
 0.0533975991966455    5    1    4    2
 -0.01812337987967724    5    1    4    4
 0.06341836110124685    5    1    5    1
 -1.098079960293319e-15    5    1    5    2
 -0.05421835539394865    5    1    5    3
 0.02697713845255582    5    1    5    5
 -0.06409432006583449    5    1    6    2
 -0.02182407669094803    5    1    6    4
 0.0117580605361342    5    1    6    6
 0.02572217516986601    5    2    2    1
 0.01014320207573549    5    2    3    2
 0.06509911927469633    5    2    4    1
 -0.06338084803580868    5    2    4    3
 -1.094610513341365e-15    5    2    5    1
 0.1219613997240431    5    2    5    2
 -0.0116936617392963    5    2    5    4
 -0.05579945975488973    5    2    6    1
 0.06738371068451365    5    2    6    3
 -0.02663778997039695    5    2    6    5
 -0.04943900738368755    5    3    1    1
 0.004317691294462772    5    3    2    2
 -0.04540562203344663    5    3    3    1
 -0.002709753958416688    5    3    3    3
 1.058181320345852e-15    5    3    4    1
 -0.08349009857902312    5    3    4    2
 -0.001757405463764447    5    3    4    4
 -0.05421835539394865    5    3    5    1
 0.08524906772414037    5    3    5    3
 0.005095910699163084    5    3    5    5
 0.05560115930578698    5    3    6    2
 -0.04747671953274178    5    3    6    4
 -0.051415780705831    5    3    6    6
 0.09766858144722804    5    4    2    1
 1.31492039479042e-15    5    4    3    1
 -0.1140941893755621    5    4    3    2
 -0.01814397650366863    5    4    4    1
 0.04551426768130078    5    4    4    3
 -0.01169366173929631    5    4    5    2
 0.1164405654418543    5    4    5    4
 -2.17881268582687e-15    5    4    5    5
 -0.01914747197647899    5    4    6    1
 -0.01815486820648538    5    4    6    3
 -0.102382565988179    5    4    6    5
 2.024422296464934e-15    5    4    6    6
 0.2192003212189587    5    5    1    1
 -1.963706974805746e-15    5    5    2    1
 0.2783500803912604    5    5    2    2
 -0.05820802856868253    5    5    3    1
 1.589006703994755e-15    5    5    3    2
 0.2274073068566382    5    5    3    3
 -0.006400953674945808    5    5    4    2
 0.2285773809236107    5    5    4    4
 0.02697713845255581    5    5    5    1
 0.005095910699163105    5    5    5    3
 -2.199629367538591e-15    5    5    5    4
 0.2858043503684407    5    5    5    5
 -0.02798236823004358    5    5    6    2
 -0.06013268054955302    5    5    6    4
 1.443289932012704e-15    5    5    6    5
 0.2278271255589257    5    5    6    6
 0.0009522810964813517    6    1    2    1
 0.01922933592976416    6    1    3    2
 0.03535771508274978    6    1    4    1
 0.08027195849170776    6    1    4    3
 -0.05579945975488973    6    1    5    2
 -0.019147471976479    6    1    5    4
 0.0928510301536125    6    1    6    1
 1.064252852511771e-15    6    1    6    2
 0.03461659446220567    6    1    6    3
 -0.001066968905663074    6    1    6    5
 -0.01204635129034648    6    2    1    1
 -0.02771016529486293    6    2    2    2
 0.02172814351051101    6    2    3    1
 0.01626285866430398    6    2    3    3
 -0.05414865879476351    6    2    4    2
 0.01790901268232924    6    2    4    4
 -0.0640943200658345    6    2    5    1
 0.05560115930578698    6    2    5    3
 -0.02798236823004359    6    2    5    5
 1.065987575987748e-15    6    2    6    1
 0.0652618672506077    6    2    6    2
 0.02171357090047314    6    2    6    4
 -0.01317539250040555    6    2    6    6
 0.03869738114258939    6    3    2    1
 0.0163818142146155    6    3    3    2
 0.1004093928357221    6    3    4    1
 0.02160839137254312    6    3    4    3
 0.06738371068451365    6    3    5    2
 -0.01815486820648538    6    3    5    4
 0.03461659446220568    6    3    6    1
 0.1025463518384156    6    3    6    3
 -0.04051486048644802    6    3    6    5
 1.335737076502141e-15    6    3    6    6
 0.06399954438115794    6    4    1    1
 -0.0578080879885297    6    4    2    2
 0.1182578165054769    6    4    3    1
 1.273287031366976e-15    6    4    3    2
 0.03391173036827252    6    4    3    3
 0.04721051999090994    6    4    4    2
 0.03556641924769786    6    4    4    4
 -0.02182407669094804    6    4    5    1
 -0.0474767195327418    6    4    5    3
 -0.06013268054955304    6    4    5    5
 0.02171357090047314    6    4    6    2
 0.122498646419095    6    4    6    4
 1.625435896990268e-15    6    4    6    5
 0.0655723599541754    6    4    6    6
 1.15706055847653e-15    6    5    1    1
 -0.1162215677233789    6    5    2    1
 -1.349614864309956e-15    6    5    2    2
 0.1013386456252975    6    5    3    2
 -0.03889706345402231    6    5    4    1
 -0.05633881424870718    6    5    4    3
 -0.02663778997039695    6    5    5    2
 -0.102382565988179    6    5    5    4
 1.415534356397075e-15    6    5    5    5
 -0.001066968905663062    6    5    6    1
 -0.04051486048644801    6    5    6    3
 1.620231726562338e-15    6    5    6    4
 0.1222442408825407    6    5    6    5
 -1.644517855226013e-15    6    5    6    6
 0.2889777646292587    6    6    1    1
 2.144118216307334e-15    6    6    2    1
 0.2225971082968636    6    6    2    2
 0.06297058813106529    6    6    3    1
 -1.273287031366976e-15    6    6    3    2
 0.2625530440846821    6    6    3    3
 0.04943980093484337    6    6    4    2
 1.054711873393899e-15    6    6    4    3
 0.2651170016211052    6    6    4    4
 0.01175806053613422    6    6    5    1
 -0.05141578070583101    6    6    5    3
 2.057382042508493e-15    6    6    5    4
 0.2278271255589257    6    6    5    5
 -0.01317539250040555    6    6    6    2
 1.366962099069724e-15    6    6    6    3
 0.06557235995417535    6    6    6    4
 -1.682681771697503e-15    6    6    6    5
 0.2998744661546083    6    6    6    6
 -1.287631033760711    1    1  0  0
 -1.182520110737074    2    2  0  0
 -0.07827966816291937    3    1  0  0
 -1.188575716742008    3    3  0  0
 -0.0993400452167526    4    2  0  0
 -1.15591491849421    4    4  0  0
 -0.04928395844863161    5    1  0  0
 0.08114377078673035    5    3  0  0
 -1.085470593707709    5    5  0  0
 0.03661125144602505    6    2  0  0
 -0.07738892185081657    6    4  0  0
 -1.144889381048334    6    6  0  0
 2.141321737211163  0  0  0  0
