 &FCI NORB=   6,NELEC= 6,MS2=0,
  ORBSYM=1,1,1,1,1,1,
  ISYM=1,
 &END
 0.3782619546741756    1    1    1    1
 0.3023041029789501    1    1    2    2
 -0.07299189454015151    1    1    3    1
 0.3246801825261215    1    1    3    3
 -0.06984025616159101    1    1    4    2
 0.328624615784206    1    1    4    4
 0.006750098380042143    1    1    5    1
 0.07221678318662811    1    1    5    3
 0.3140142013788638    1    1    5    5
 0.007884717762964391    1    1    6    2
 0.07580779596310722    1    1    6    4
 0.3989955167240932    1    1    6    6
 0.1273760459816127    2    1    2    1
 0.09801900138674446    2    1    3    2
 -0.04742600278383335    2    1    4    1
 0.07675216089816753    2    1    4    3
 0.03895923093198055    2    1    5    2
 -0.1001465130216397    2    1    5    4
 -0.001080366399226377    2    1    6    1
 0.04813036245159415    2    1    6    3
 0.1314804213148059    2    1    6    5
 0.3023041029789501    2    2    1    1
 0.3387723335236726    2    2    2    2
 0.03514128328571593    2    2    3    1
 0.3045387067810741    2    2    3    3
 -0.006126410810722689    2    2    4    2
 0.3073316644916584    2    2    4    4
 0.03424465624416631    2    2    5    1
 0.007974929892403719    2    2    5    3
 0.3454932055481926    2    2    5    5
 0.03508968745941639    2    2    6    2
 -0.03079186077411205    2    2    6    4
 0.3202971860691938    2    2    6    6
 -0.07299189454015145    3    1    1    1
 0.03514128328571592    3    1    2    2
 0.1044582131238147    3    1    3    1
 -0.02263083240159665    3    1    3    3
 0.05761513188230732    3    1    4    2
 -0.02287679338366469    3    1    4    4
 0.03031669618066681    3    1    5    1
 -0.05905235509410822    3    1    5    3
 0.02988950160197951    3    1    5    5
 0.02941805953564487    3    1    6    2
 -0.1032051843576002    3    1    6    4
 -0.07697006609678031    3    1    6    6
 0.09801900138674448    3    2    2    1
 0.1210255508605907    3    2    3    2
 0.01736735142182097    3    2    4    1
 0.07397764897236694    3    2    4    3
 -0.002050973992457981    3    2    5    2
 -0.1178199640522137    3    2    5    4
 0.02382729090945612    3    2    6    1
 -0.0124580365905961    3    2    6    3
 0.1035607853186056    3    2    6    5
 0.3246801825261215    3    3    1    1
 0.304538706781074    3    3    2    2
 -0.02263083240159667    3    3    3    1
 0.3293744997076236    3    3    3    3
 -0.0007645372797679684    3    3    4    2
 0.3260441294934888    3    3    4    4
 -0.01752747021633331    3    3    5    1
 0.008147264686888596    3    3    5    3
 0.3156989652903003    3    3    5    5
 -0.0125723430924284    3    3    6    2
 0.02419736634383389    3    3    6    4
 0.3454065985817252    3    3    6    6
 -0.04742600278383335    4    1    2    1
 0.01736735142182097    4    1    3    2
 0.08190065848704205    4    1    4    1
 -0.01110377822983018    4    1    4    3
 -0.0532072430446156    4    1    5    2
 -0.01174179317998287    4    1    5    4
 0.03007787519389914    4    1    6    1
 -0.07869880872396898    4    1    6    3
 -0.04813392813200124    4    1    6    5
 -0.06984025616159102    4    2    1    1
 -0.00612641081072271    4    2    2    2
 0.05761513188230733    4    2    3    1
 -0.0007645372797679583    4    2    3    3
 0.08404166712376052    4    2    4    2
 -0.00761558064756505    4    2    4    4
 -0.03256291217277706    4    2    5    1
 -0.08052052870133569    4    2    5    3
 -0.008271527439896027    4    2    5    5
 -0.02965698621113347    4    2    6    2
 -0.06021990010702293    4    2    6    4
 -0.07473168015784343    4    2    6    6
 0.07675216089816753    4    3    2    1
 0.07397764897236692    4    3    3    2
 -0.01110377822983018    4    3    4    1
 0.1048350000990421    4    3    4    3
 -0.04184209909845723    4    3    5    2
 -0.07595903622949475    4    3    5    4
 -0.04896108453974035    4    3    6    1
 0.01181791012023066    4    3    6    3
 0.08185944553149208    4    3    6    5
 0.3286246157842061    4    4    1    1
 0.3073316644916584    4    4    2    2
 -0.02287679338366467    4    4    3    1
 0.3260441294934888    4    4    3    3
 -0.007615580647565068    4    4    4    2
 0.3363109985187993    4    4    4    4
 -0.01219488621221059    4    4    5    1
 0.005194747515129251    4    4    5    3
 0.321363019069457    4    4    5    5
 -0.01470009482103536    4    4    6    2
 0.02533061713805267    4    4    6    4
 0.3520477801303579    4    4    6    6
 0.006750098380042162    5    1    1    1
 0.03424465624416631    5    1    2    2
 0.03031669618066681    5    1    3    1
 -0.01752747021633329    5    1    3    3
 -0.03256291217277706    5    1    4    2
 -0.01219488621221059    5    1    4    4
 0.05574060701013515    5    1    5    1
 0.02870192228591709    5    1    5    3
 0.03348217304556052    5    1    5    5
 0.05305172722897149    5    1    6    2
 -0.02872311916547374    5    1    6    4
 0.007479262709525474    5    1    6    6
 0.03895923093198052    5    2    2    1
 -0.002050973992457983    5    2    3    2
 -0.05320724304461562    5    2    4    1
 -0.04184209909845723    5    2    4    3
 0.09213900192888833    5    2    5    2
 0.001123309281569895    5    2    5    4
 0.03949904833559767    5    2    6    1
 0.05398085088891963    5    2    6    3
 0.04037173647096681    5    2    6    5
 0.07221678318662811    5    3    1    1
 0.007974929892403724    5    3    2    2
 -0.05905235509410822    5    3    3    1
 0.008147264686888565    5    3    3    3
 -0.08052052870133572    5    3    4    2
 0.005194747515129224    5    3    4    4
 0.02870192228591709    5    3    5    1
 0.0849289485729384    5    3    5    3
 0.009806651765443309    5    3    5    5
 0.03168973761931308    5    3    6    2
 0.06164651224204246    5    3    6    4
 0.07908969906445364    5    3    6    6
 -0.1001465130216397    5    4    2    1
 -0.1178199640522136    5    4    3    2
 -0.01174179317998287    5    4    4    1
 -0.07595903622949475    5    4    4    3
 0.001123309281569909    5    4    5    2
 0.1247675203264314    5    4    5    4
 -0.02217042398494097    5    4    6    1
 0.01391569075800469    5    4    6    3
 -0.107893622402007    5    4    6    5
 0.3140142013788638    5    5    1    1
 0.3454932055481926    5    5    2    2
 0.0298895016019795    5    5    3    1
 0.3156989652903003    5    5    3    3
 -0.00827152743989603    5    5    4    2
 0.321363019069457    5    5    4    4
 0.0334821730455605    5    5    5    1
 0.009806651765443312    5    5    5    3
 0.3648876850926657    5    5    5    5
 0.03516957367816377    5    5    6    2
 -0.03258614744477882    5    5    6    4
 0.3394164424861479    5    5    6    6
 -0.001080366399226392    6    1    2    1
 0.02382729090945612    6    1    3    2
 0.03007787519389913    6    1    4    1
 -0.04896108453974035    6    1    4    3
 0.03949904833559765    6    1    5    2
 -0.02217042398494097    6    1    5    4
 0.07374444500259117    6    1    6    1
 -0.02902111059070571    6    1    6    3
 -0.001271058704704413    6    1    6    5
 0.007884717762964391    6    2    1    1
 0.0350896874594164    6    2    2    2
 0.02941805953564486    6    2    3    1
 -0.01257234309242844    6    2    3    3
 -0.02965698621113347    6    2    4    2
 -0.01470009482103539    6    2    4    4
 0.05305172722897147    6    2    5    1
 0.03168973761931305    6    2    5    3
 0.03516957367816374    6    2    5    5
 0.05499011316079132    6    2    6    2
 -0.02931500846622627    6    2    6    4
 0.009284751554011018    6    2    6    6
 0.04813036245159414    6    3    2    1
 -0.01245803659059609    6    3    3    2
 -0.07869880872396895    6    3    4    1
 0.01181791012023065    6    3    4    3
 0.0539808508889196    6    3    5    2
 0.01391569075800468    6    3    5    4
 -0.02902111059070568    6    3    6    1
 0.08272544924992667    6    3    6    3
 0.05201073956121042    6    3    6    5
 0.07580779596310724    6    4    1    1
 -0.030791860774112    6    4    2    2
 -0.1032051843576002    6    4    3    1
 0.0241973663438339    6    4    3    3
 -0.06021990010702293    6    4    4    2
 0.02533061713805266    6    4    4    4
 -0.02872311916547373    6    4    5    1
 0.06164651224204244    6    4    5    3
 -0.03258614744477878    6    4    5    5
 -0.02931500846622627    6    4    6    2
 0.1110369157328025    6    4    6    4
 0.08405218646626475    6    4    6    6
 0.1314804213148059    6    5    2    1
 0.1035607853186056    6    5    3    2
 -0.04813392813200121    6    5    4    1
 0.08185944553149208    6    5    4    3
 0.04037173647096678    6    5    5    2
 -0.107893622402007    6    5    5    4
 -0.001271058704704391    6    5    6    1
 0.05201073956121044    6    5    6    3
 0.1458277116583135    6    5    6    5
 0.3989955167240933    6    6    1    1
 0.3202971860691937    6    6    2    2
 -0.07697006609678025    6    6    3    1
 0.3454065985817251    6    6    3    3
 -0.07473168015784344    6    6    4    2
 0.3520477801303579    6    6    4    4
 0.007479262709525449    6    6    5    1
 0.07908969906445362    6    6    5    3
 0.339416442486148    6    6    5    5
 0.009284751554011025    6    6    6    2
 0.08405218646626478    6    6    6    4
 0.4385016954588252    6    6    6    6
 -1.944517866700456    1    1  0  0
 -1.753734489267432    2    2  0  0
 0.1233591666656988    3    1  0  0
 -1.659775837307255    3    3  0  0
 -1.290634266126744e-15    4    1  0  0
 0.1738876745048225    4    2  0  0
 -1.515048156497839    4    4  0  0
 -0.06027761194460189    5    1  0  0
 -0.1402649397735386    5    3  0  0
 -1.32262461572824    5    5  0  0
 -0.03925282093448559    6    2  0  0
 -0.1261878070224452    6    4  0  0
 -1.280062809664246    6    6  0  0
 3.6830733880032  0  0  0  0
