 &FCI NORB=   6,NELEC= 6,MS2=0,
  ORBSYM=1,1,1,1,1,1,
  ISYM=1,
 &END
 0.4179426367440942    1    1    1    1
 0.3367811842665327    1    1    2    2
 -0.07819532935252065    1    1    3    1
 0.3552640683689873    1    1    3    3
 -0.07754248839033456    1    1    4    2
 0.3609701495247065    1    1    4    4
 0.005061731368643636    1    1    5    1
 0.0804627544112383    1    1    5    3
 0.3538186122684773    1    1    5    5
 -0.006465799780252411    1    1    6    2
 -0.08111372584482626    1    1    6    4
 0.4449977504642458    1    1    6    6
 0.1320792232847818    2    1    2    1
 0.1004879388091378    2    1    3    2
 -0.0503789812927458    2    1    4    1
 0.08238560869482861    2    1    4    3
 0.04284454944149471    2    1    5    2
 -0.1036446764960101    2    1    5    4
 0.00158806077029037    2    1    6    1
 -0.05042807808651084    2    1    6    3
 -0.1355186502447272    2    1    6    5
 0.3367811842665327    2    2    1    1
 0.3688846263359716    2    2    2    2
 0.02963447556225048    2    2    3    1
 0.3370984914023    2    2    3    3
 -0.01132697919632089    2    2    4    2
 0.3412158730364661    2    2    4    4
 0.03595978268260367    2    2    5    1
 0.0131491523416982    2    2    5    3
 0.3763610319746034    2    2    5    5
 -0.03647388993773427    2    2    6    2
 0.02288858886252359    2    2    6    4
 0.3601252204272736    2    2    6    6
 -0.07819532935252063    3    1    1    1
 0.0296344755622505    3    1    2    2
 0.1030897947916326    3    1    3    1
 -0.0213096405823695    3    1    3    3
 0.06000907096934044    3    1    4    2
 -0.02181123866047135    3    1    4    4
 0.03270127602597801    3    1    5    1
 -0.06223813121356668    3    1    5    3
 0.01984524912325613    3    1    5    5
 -0.03107878449688959    3    1    6    2
 0.09978852971788596    3    1    6    4
 -0.08367704045329902    3    1    6    6
 0.1004879388091378    3    2    2    1
 0.125255860475216    3    2    3    2
 0.01575314284376273    3    2    4    1
 0.0823994275923992    3    2    4    3
 0.0009712551129855314    3    2    5    2
 -0.1195427997537594    3    2    5    4
 -0.02443574569403156    3    2    6    1
 0.009067628185933447    3    2    6    3
 -0.1060135081978604    3    2    6    5
 0.3552640683689873    3    3    1    1
 0.3370984914023    3    3    2    2
 -0.02130964058236951    3    3    3    1
 0.3609611155860334    3    3    3    3
 -0.00201854439259333    3    3    4    2
 0.3556921427523057    3    3    4    4
 -0.01649074328962314    3    3    5    1
 0.01245984695972656    3    3    5    3
 0.3513658790826025    3    3    5    5
 0.00947468936841464    3    3    6    2
 -0.02367791825259874    3    3    6    4
 0.3819430999253865    3    3    6    6
 -0.0503789812927458    4    1    2    1
 0.01575314284376273    4    1    3    2
 0.07974896154714391    4    1    4    1
 -0.009755772335988032    4    1    4    3
 -0.05221581044993312    4    1    5    2
 -0.006329884728489129    4    1    5    4
 -0.02963685768183441    4    1    6    1
 0.07417137904538543    4    1    6    3
 0.05085313549082099    4    1    6    5
 -0.07754248839033454    4    2    1    1
 -0.01132697919632091    4    2    2    2
 0.06000907096934044    4    2    3    1
 -0.002018544392593338    4    2    3    3
 0.08597160031677045    4    2    4    2
 -0.01284203971587958    4    2    4    4
 -0.0285995302901118    4    2    5    1
 -0.08003053512157898    4    2    5    3
 -0.01642535259409314    4    2    5    5
 0.02394454234306788    4    2    6    2
 0.06213950204509319    4    2    6    4
 -0.08438882360074057    4    2    6    6
 0.08238560869482861    4    3    2    1
 0.08239942759239918    4    3    3    2
 -0.009755772335988028    4    3    4    1
 0.1072379885971378    4    3    4    3
 -0.03523029965557753    4    3    5    2
 -0.08384682170478805    4    3    5    4
 0.04175850347224565    4    3    6    1
 -0.01097875968638867    4    3    6    3
 -0.08788226337834282    4    3    6    5
 0.3609701495247065    4    4    1    1
 0.3412158730364661    4    4    2    2
 -0.02181123866047136    4    4    3    1
 0.3556921427523057    4    4    3    3
 -0.01284203971587958    4    4    4    2
 0.369043897531024    4    4    4    4
 -0.007782355011532151    4    4    5    1
 0.009250940508254892    4    4    5    3
 0.3590567826947196    4    4    5    5
 0.01153035800744719    4    4    6    2
 -0.02524702117417264    4    4    6    4
 0.3912986152342364    4    4    6    6
 0.005061731368643641    5    1    1    1
 0.03595978268260371    5    1    2    2
 0.03270127602597802    5    1    3    1
 -0.01649074328962314    5    1    3    3
 -0.0285995302901118    5    1    4    2
 -0.007782355011532126    5    1    4    4
 0.0554058881079129    5    1    5    1
 0.02179760380036126    5    1    5    3
 0.03419649728707773    5    1    5    5
 -0.05061790299776893    5    1    6    2
 0.03027966815412864    5    1    6    4
 0.005734662536384232    5    1    6    6
 0.04284454944149471    5    2    2    1
 0.0009712551129855531    5    2    3    2
 -0.05221581044993312    5    2    4    1
 -0.03523029965557749    5    2    4    3
 0.08672015414461418    5    2    5    2
 -0.004085315192203783    5    2    5    4
 -0.03504801682004415    5    2    6    1
 -0.05195010490240802    5    2    6    3
 -0.04448354695397282    5    2    6    5
 0.08046275441123829    5    3    1    1
 0.01314915234169821    5    3    2    2
 -0.06223813121356667    5    3    3    1
 0.01245984695972656    5    3    3    3
 -0.08003053512157896    5    3    4    2
 0.00925094050825492    5    3    4    4
 0.02179760380036125    5    3    5    1
 0.08581388107864059    5    3    5    3
 0.01813182989577867    5    3    5    5
 -0.02595577527030781    5    3    6    2
 -0.06425776796908937    5    3    6    4
 0.08994635449963626    5    3    6    6
 -0.1036446764960101    5    4    2    1
 -0.1195427997537594    5    4    3    2
 -0.006329884728489121    5    4    4    1
 -0.08384682170478808    5    4    4    3
 -0.004085315192203773    5    4    5    2
 0.1280166213036765    5    4    5    4
 0.02198311387084596    5    4    6    1
 -0.00967317216382107    5    4    6    3
 0.1118244623027627    5    4    6    5
 0.3538186122684773    5    5    1    1
 0.3763610319746032    5    5    2    2
 0.01984524912325616    5    5    3    1
 0.3513658790826024    5    5    3    3
 -0.01642535259409314    5    5    4    2
 0.3590567826947197    5    5    4    4
 0.03419649728707774    5    5    5    1
 0.01813182989577865    5    5    5    3
 0.4013766523812056    5    5    5    5
 -0.0362205369500843    5    5    6    2
 0.02265439341427345    5    5    6    4
 0.3876006291653398    5    5    6    6
 0.001588060770290368    6    1    2    1
 -0.02443574569403157    6    1    3    2
 -0.02963685768183442    6    1    4    1
 0.04175850347224563    6    1    4    3
 -0.03504801682004414    6    1    5    2
 0.02198311387084598    6    1    5    4
 0.06996972980639625    6    1    6    1
 -0.02817879477436944    6    1    6    3
 -0.001875911736131611    6    1    6    5
 -0.006465799780252392    6    2    1    1
 -0.03647388993773426    6    2    2    2
 -0.0310787844968896    6    2    3    1
 0.009474689368414672    6    2    3    3
 0.02394454234306785    6    2    4    2
 0.0115303580074472    6    2    4    4
 -0.05061790299776892    6    2    5    1
 -0.02595577527030781    6    2    5    3
 -0.0362205369500843    6    2    5    5
 0.05286030939609108    6    2    6    2
 -0.0309189306148172    6    2    6    4
 -0.00786356946528936    6    2    6    6
 -0.05042807808651083    6    3    2    1
 0.009067628185933437    6    3    3    2
 0.0741713790453854    6    3    4    1
 -0.01097875968638866    6    3    4    3
 -0.05195010490240799    6    3    5    2
 -0.009673172163821133    6    3    5    4
 -0.02817879477436943    6    3    6    1
 0.07862611621854737    6    3    6    3
 0.0552504618911948    6    3    6    5
 -0.08111372584482618    6    4    1    1
 0.02288858886252356    6    4    2    2
 0.09978852971788599    6    4    3    1
 -0.02367791825259874    6    4    3    3
 0.06213950204509323    6    4    4    2
 -0.02524702117417265    6    4    4    4
 0.03027966815412862    6    4    5    1
 -0.06425776796908941    6    4    5    3
 0.02265439341427351    6    4    5    5
 -0.03091893061481718    6    4    6    2
 0.1085846707631733    6    4    6    4
 -0.09263258956360992    6    4    6    6
 -0.1355186502447272    6    5    2    1
 -0.1060135081978605    6    5    3    2
 0.05085313549082098    6    5    4    1
 -0.08788226337834286    6    5    4    3
 -0.04448354695397276    6    5    5    2
 0.1118244623027628    6    5    5    4
 -0.001875911736131615    6    5    6    1
 0.05525046189119477    6    5    6    3
 0.1528281748190796    6    5    6    5
 0.4449977504642457    6    6    1    1
 0.3601252204272736    6    6    2    2
 -0.08367704045329905    6    6    3    1
 0.3819430999253866    6    6    3    3
 -0.08438882360074063    6    6    4    2
 0.3912986152342365    6    6    4    4
 0.005734662536384274    6    6    5    1
 0.08994635449963626    6    6    5    3
 0.38760062916534    6    6    5    5
 -0.007863569465289421    6    6    6    2
 -0.09263258956360972    6    6    6    4
 0.4992599847409421    6    6    6    6
 -2.204936048689275    1    1  0  0
 -1.976199823465049    2    2  0  0
 0.1407239604854223    3    1  0  0
 -1.838233236124403    3    3  0  0
 0.2024694893987753    4    2  0  0
 -1.640913636891127    4    4  0  0
 -0.06339339158334267    5    1  0  0
 -0.1660111324415566    5    3  0  0
 -1.373390170012806    5    5  0  0
 0.04111180185431509    6    2  0  0
 0.1471350387030566    6    4  0  0
 -1.235510090156676    6    6  0  0
 4.384611176194287  0  0  0  0
