 &FCI NORB=   6,NELEC= 6,MS2=0,
  ORBSYM=1,1,1,1,1,1,
  ISYM=1,
 &END
 0.4695449263509675    1    1    1    1
 0.3815468815104018    1    1    2    2
 -0.08513640482823281    1    1    3    1
 0.3955394642120835    1    1    3    3
 0.08791521517433068    1    1    4    2
 0.4052809557246279    1    1    4    4
 0.002532128736720624    1    1    5    1
 0.09180582064451548    1    1    5    3
 0.4089172235038721    1    1    5    5
 0.004806291096369954    1    1    6    2
 -0.08855775667729347    1    1    6    4
 0.5068319587659693    1    1    6    6
 0.1361462507677464    2    1    2    1
 0.1033825343067004    2    1    3    2
 0.05410921662404499    2    1    4    1
 -0.08821695355125528    2    1    4    3
 0.04783491123225073    2    1    5    2
 0.1085180056088854    2    1    5    4
 -0.002426581647602815    2    1    6    1
 0.05320985047071443    2    1    6    3
 0.1391975575489964    2    1    6    5
 0.3815468815104018    2    2    1    1
 0.4089860753720838    2    2    2    2
 0.02261259645927207    2    2    3    1
 0.379686555084538    2    2    3    3
 0.01896029536711938    2    2    4    2
 0.386434958583955    2    2    4    4
 0.03795421028648396    2    2    5    1
 0.0204370190818507    2    2    5    3
 0.4194226894185198    2    2    5    5
 0.03829814635703625    2    2    6    2
 0.01357092701968264    2    2    6    4
 0.4138440426591582    2    2    6    6
 -0.08513640482823287    3    1    1    1
 0.0226125964592721    3    1    2    2
 0.1011165289367745    3    1    3    1
 -0.02062862680325547    3    1    3    3
 -0.06222471063385432    3    1    4    2
 -0.0224867327969972    3    1    4    4
 0.03569731491861575    3    1    5    1
 -0.06589854375642265    3    1    5    3
 0.00550577379649172    3    1    5    5
 0.03300659254738568    3    1    6    2
 0.0964469762002802    3    1    6    4
 -0.0931179287264977    3    1    6    6
 0.1033825343067004    3    2    2    1
 0.130691731591872    3    2    3    2
 -0.01298875761870612    3    2    4    1
 -0.0920807160023035    3    2    4    3
 0.004960949993783118    3    2    5    2
 0.122116867140763    3    2    5    4
 0.02514737907092707    3    2    6    1
 -0.004901239067822247    3    2    6    3
 0.1089999165511006    3    2    6    5
 0.3955394642120836    3    3    1    1
 0.3796865550845379    3    3    2    2
 -0.02062862680325545    3    3    3    1
 0.4029999378355109    3    3    3    3
 0.004562349541206233    3    3    4    2
 0.3968303294165767    3    3    4    4
 -0.01509654948378731    3    3    5    1
 0.01848690426610733    3    3    5    3
 0.3994614738956613    3    3    5    5
 -0.005601739099452007    3    3    6    2
 -0.02447061980111449    3    3    6    4
 0.4320293256183827    3    3    6    6
 0.05410921662404497    4    1    2    1
 -0.01298875761870613    4    1    3    2
 0.07817682190881656    4    1    4    1
 -0.009445484819559972    4    1    4    3
 0.05221986678515109    4    1    5    2
 0.001686509981683104    4    1    5    4
 -0.02965980576069674    4    1    6    1
 0.07034705770929892    4    1    6    3
 0.05480048292255502    4    1    6    5
 0.08791521517433068    4    2    1    1
 0.01896029536711939    4    2    2    2
 -0.06222471063385432    4    2    3    1
 0.004562349541206228    4    2    3    3
 0.08904141811614513    4    2    4    2
 0.02111055755377971    4    2    4    4
 0.02474922731670955    4    2    5    1
 0.08047077478641167    4    2    5    3
 0.03003663082880286    4    2    5    5
 0.01840254264121931    4    2    6    2
 -0.06391805752957884    4    2    6    4
 0.09828199002906218    4    2    6    6
 -0.08821695355125528    4    3    2    1
 -0.09208071600230351    4    3    3    2
 -0.00944548481955994    4    3    4    1
 0.1118953086212665    4    3    4    3
 0.02789477156241526    4    3    5    2
 -0.09221158273012095    4    3    5    4
 0.03487156669165863    4    3    6    1
 -0.01107691825761715    4    3    6    3
 -0.09414868513791355    4    3    6    5
 0.4052809557246277    4    4    1    1
 0.386434958583955    4    4    2    2
 -0.02248673279699719    4    4    3    1
 0.3968303294165768    4    4    3    3
 0.02111055755377968    4    4    4    2
 0.4145593982120933    4    4    4    4
 -0.002098033095456303    4    4    5    1
 0.01641899516707974    4    4    5    3
 0.4108562727372017    4    4    5    5
 -0.007201250603246329    4    4    6    2
 -0.02752916375873127    4    4    6    4
 0.4470458155718811    4    4    6    6
 0.002532128736720621    5    1    1    1
 0.03795421028648399    5    1    2    2
 0.03569731491861574    5    1    3    1
 -0.01509654948378733    5    1    3    3
 0.02474922731670953    5    1    4    2
 -0.002098033095456292    5    1    4    4
 0.05623111788958536    5    1    5    1
 0.01377283079033722    5    1    5    3
 0.03454432187866924    5    1    5    5
 0.04873897078631731    5    1    6    2
 0.03264651659825996    5    1    6    4
 0.003162102109437872    5    1    6    6
 0.04783491123225074    5    2    2    1
 0.004960949993783114    5    2    3    2
 0.0522198667851511    5    2    4    1
 0.02789477156241523    5    2    4    3
 0.08270885218182331    5    2    5    2
 0.01208437106376768    5    2    5    4
 0.03041319306167683    5    2    6    1
 0.05082264977524645    5    2    6    3
 0.05021113087819142    5    2    6    5
 0.09180582064451548    5    3    1    1
 0.02043701908185071    5    3    2    2
 -0.06589854375642262    5    3    3    1
 0.01848690426610735    5    3    3    3
 0.08047077478641165    5    3    4    2
 0.01641899516707977    5    3    4    4
 0.01377283079033724    5    3    5    1
 0.08812522582774736    5    3    5    3
 0.03210297226053863    5    3    5    5
 0.01994058183235297    5    3    6    2
 -0.06730626404947115    5    3    6    4
 0.1057489392385118    5    3    6    6
 0.1085180056088854    5    4    2    1
 0.122116867140763    5    4    3    2
 0.001686509981683071    5    4    4    1
 -0.09221158273012095    5    4    4    3
 0.01208437106376768    5    4    5    2
 0.1324561598678432    5    4    5    4
 0.02177152203370336    5    4    6    1
 -0.003516665625120376    5    4    6    3
 0.1171910692541785    5    4    6    5
 0.4089172235038719    5    5    1    1
 1.006139616066548e-15    5    5    2    1
 0.4194226894185198    5    5    2    2
 0.005505773796491739    5    5    3    1
 0.3994614738956612    5    5    3    3
 0.03003663082880282    5    5    4    2
 0.4108562727372017    5    5    4    4
 0.03454432187866933    5    5    5    1
 0.03210297226053865    5    5    5    3
 0.454269672207349    5    5    5    5
 0.0374888662527012    5    5    6    2
 0.008560096976517523    5    5    6    4
 1.131039706336878e-15    5    5    6    5
 0.4567818946710485    5    5    6    6
 -0.002426581647602813    6    1    2    1
 0.02514737907092707    6    1    3    2
 -0.02965980576069674    6    1    4    1
 0.03487156669165865    6    1    4    3
 0.03041319306167683    6    1    5    2
 0.02177152203370337    6    1    5    4
 0.06679233009839794    6    1    6    1
 -0.02778436770367886    6    1    6    3
 -0.0028947028289848    6    1    6    5
 0.004806291096369973    6    2    1    1
 0.03829814635703635    6    2    2    2
 0.03300659254738568    6    2    3    1
 -0.005601739099452048    6    2    3    3
 0.01840254264121927    6    2    4    2
 -0.00720125060324627    6    2    4    4
 0.04873897078631732    6    2    5    1
 0.01994058183235296    6    2    5    3
 0.03748886625270113    6    2    5    5
 0.05153262419712756    6    2    6    2
 0.03314379568590107    6    2    6    4
 0.006266605349559105    6    2    6    6
 0.05320985047071448    6    3    2    1
 -0.004901239067822246    6    3    3    2
 0.07034705770929894    6    3    4    1
 -0.01107691825761727    6    3    4    3
 0.05082264977524641    6    3    5    2
 -0.003516665625120504    6    3    5    4
 -0.02778436770367895    6    3    6    1
 0.07554605908779705    6    3    6    3
 0.05966570484596427    6    3    6    5
 -0.08855775667729346    6    4    1    1
 0.0135709270196828    6    4    2    2
 0.09644697620028017    6    4    3    1
 -0.02447061980111457    6    4    3    3
 -0.06391805752957888    6    4    4    2
 -0.02752916375873139    6    4    4    4
 0.03264651659826    6    4    5    1
 -0.06730626404947121    6    4    5    3
 0.008560096976517552    6    4    5    5
 0.03314379568590112    6    4    6    2
 0.1069702053802391    6    4    6    4
 -0.1050653796218631    6    4    6    6
 0.1391975575489965    6    5    2    1
 0.1089999165511006    6    5    3    2
 0.05480048292255502    6    5    4    1
 -0.09414868513791373    6    5    4    3
 0.05021113087819139    6    5    5    2
 0.1171910692541782    6    5    5    4
 -0.002894702828984921    6    5    6    1
 0.05966570484596442    6    5    6    3
 0.1606854477719635    6    5    6    5
 -1.330532906074211e-15    6    5    6    6
 0.5068319587659693    6    6    1    1
 0.4138440426591581    6    6    2    2
 -0.09311792872649757    6    6    3    1
 0.4320293256183827    6    6    3    3
 0.09828199002906221    6    6    4    2
 0.4470458155718812    6    6    4    4
 0.003162102109437854    6    6    5    1
 0.105748939238512    6    6    5    3
 0.4567818946710483    6    6    5    5
 0.006266605349559124    6    6    6    2
 -0.1050653796218634    6    6    6    4
 -1.111957748101133e-15    6    6    6    5
 0.5849895853821969    6    6    6    6
 -2.550149823657834    1    1  0  0
 -2.263770934396727    2    2  0  0
 0.1639223748555117    3    1  0  0
 -2.058529811989412    3    3  0  0
 -0.2418869536784241    4    2  0  0
 -1.785784087250771    4    4  0  0
 -0.06631109535992763    5    1  0  0
 -0.2023142869296675    5    3  0  0
 -1.39973663876471    5    5  0  0
 -0.04403505164511681    6    2  0  0
 0.1765807167642414    6    4  0  0
 1.144917494144693e-15    6    5  0  0
 -1.066283374391032    6    6  0  0
 5.416284394122354  0  0  0  0
