 &FCI NORB=   6,NELEC= 6,MS2=0,
  ORBSYM=1,1,1,1,1,1,
  ISYM=1,
 &END
 0.539311492999611    1    1    1    1
 0.4423222285404892    1    1    2    2
 -0.09477228845860713    1    1    3    1
 -1.037364638634131e-15    1    1    3    2
 0.4493731475789821    1    1    3    3
 -0.1032090586871454    1    1    4    2
 0.4675365666473495    1    1    4    4
 -0.001759090349620416    1    1    5    1
 0.107765204716083    1    1    5    3
 0.4893646143905004    1    1    5    5
 -0.002624016139396664    1    1    6    2
 -0.09872861235592034    1    1    6    4
 0.5982104317165828    1    1    6    6
 0.1382672297406696    2    1    2    1
 1.054711873393899e-15    2    1    2    2
 0.1055146542849138    2    1    3    2
 -0.0590459674154108    2    1    4    1
 0.09375800571354798    2    1    4    3
 0.05441878032429182    2    1    5    2
 -0.1142508895565198    2    1    5    4
 0.003904893549048684    2    1    6    1
 -0.05633416369657986    2    1    6    3
 -0.1432378581080248    2    1    6    5
 0.4423222285404892    2    2    1    1
 1.054711873393899e-15    2    2    2    1
 0.4642789525081534    2    2    2    2
 0.01208555727347894    2    2    3    1
 1.089406342913435e-15    2    2    3    2
 0.4372209315080857    2    2    3    3
 -0.03160068781778416    2    2    4    2
 0.4494687265211785    2    2    4    4
 0.03985821165726909    2    2    5    1
 0.0317068099714323    2    2    5    3
 -1.137978600240785e-15    2    2    5    4
 0.4839835418942967    2    2    5    5
 -0.04045538031935002    2    2    6    2
 0.002506538633770524    2    2    6    4
 0.4914649546417439    2    2    6    6
 -0.09477228845860713    3    1    1    1
 0.01208555727347894    3    1    2    2
 0.09712979198803004    3    1    3    1
 -0.02117492506458245    3    1    3    3
 0.0639909334377104    3    1    4    2
 -0.02631038345056583    3    1    4    4
 0.03916864184918961    3    1    5    1
 -0.06958074706425066    3    1    5    3
 -0.01568081193117406    3    1    5    5
 -0.03486992121874417    3    1    6    2
 0.09324618332994966    3    1    6    4
 -0.1110211512565639    3    1    6    6
 -1.039099362110107e-15    3    2    1    1
 0.1055146542849138    3    2    2    1
 1.089406342913435e-15    3    2    2    2
 0.1370306653792484    3    2    3    2
 0.008340850342145184    3    2    4    1
 0.1034010646250241    3    2    4    3
 0.01061415825603512    3    2    5    2
 -0.1259175096907477    3    2    5    4
 -0.02573813403722735    3    2    6    1
 0.0004258912733911355    3    2    6    3
 -0.1113549674901141    3    2    6    5
 0.449373147578982    3    3    1    1
 0.4372209315080858    3    3    2    2
 -0.02117492506458238    3    3    3    1
 0.4604028231873655    3    3    3    3
 -0.009673729277822399    3    3    4    2
 0.4560538073108311    3    3    4    4
 -0.01302167995293213    3    3    5    1
 0.0263601567145055    3    3    5    3
 0.4670567357750184    3    3    5    5
 0.0009785924136794903    3    3    6    2
 -0.02716766574170753    3    3    6    4
 0.5052051888718906    3    3    6    6
 -0.05904596741541079    4    1    2    1
 0.008340850342145212    4    1    3    2
 0.07661296361890102    4    1    4    1
 -0.01083058428666894    4    1    4    3
 -0.05319624076393937    4    1    5    2
 0.01295036402027741    4    1    5    4
 -0.02983196001618718    4    1    6    1
 0.06741089569149848    4    1    6    3
 0.0633864579395611    4    1    6    5
 -0.1032090586871453    4    2    1    1
 -0.03160068781778415    4    2    2    2
 0.06399093343771038    4    2    3    1
 -0.009673729277822427    4    2    3    3
 0.09388507205420935    4    2    4    2
 -0.034396041003516    4    2    4    4
 -0.02050979924199386    4    2    5    1
 -0.08268035058795925    4    2    5    3
 -0.05466156884931544    4    2    5    5
 0.01330751516791398    4    2    6    2
 0.06494653467774356    4    2    6    4
 -0.1237565139112106    4    2    6    6
 0.09375800571354795    4    3    2    1
 0.103401064625024    4    3    3    2
 -0.01083058428666893    4    3    4    1
 0.1201926824913412    4    3    4    3
 -0.01957123018655823    4    3    5    2
 -0.1008876166330322    4    3    5    4
 0.02845610381806443    4    3    6    1
 -0.01260970621872283    4    3    6    3
 -0.1006850858074494    4    3    6    5
 0.4675365666473494    4    4    1    1
 0.4494687265211785    4    4    2    2
 -0.02631038345056582    4    4    3    1
 0.456053807310831    4    4    3    3
 -0.03439604100351608    4    4    4    2
 0.4805681739340767    4    4    4    4
 0.004488906470866782    4    4    5    1
 0.02864573715511335    4    4    5    3
 0.487315199132734    4    4    5    5
 0.001149115902745084    4    4    6    2
 -0.0329914840217936    4    4    6    4
 1.457167719820518e-15    4    4    6    5
 0.5331216095802198    4    4    6    6
 -0.001759090349620506    5    1    1    1
 0.03985821165726908    5    1    2    2
 0.03916864184918963    5    1    3    1
 -0.01302167995293213    5    1    3    3
 -0.02050979924199386    5    1    4    2
 0.004488906470866787    5    1    4    4
 0.05808044345466181    5    1    5    1
 0.004234353106017131    5    1    5    3
 0.03508719407505541    5    1    5    5
 -0.04766635756350809    5    1    6    2
 0.03786291570352784    5    1    6    4
 -0.002440095241103047    5    1    6    6
 0.0544187803242918    5    2    2    1
 0.01061415825603518    5    2    3    2
 -0.05319624076393935    5    2    4    1
 -0.01957123018655817    5    2    4    3
 0.08092551620210969    5    2    5    2
 -0.02511088461133623    5    2    5    4
 -0.02582926793278905    5    2    6    1
 -0.05018298603894832    5    2    6    3
 -0.06083093557629776    5    2    6    5
 0.1077652047160832    5    3    1    1
 0.03170680997143227    5    3    2    2
 -0.06958074706425064    5    3    3    1
 0.02636015671450543    5    3    3    3
 -0.08268035058795924    5    3    4    2
 0.02864573715511347    5    3    4    4
 0.004234353106017178    5    3    5    1
 0.09208001608973493    5    3    5    3
 0.05661502752679155    5    3    5    5
 -0.01314626528676619    5    3    6    2
 -0.07065207410009999    5    3    6    4
 0.1337470496330713    5    3    6    6
 -0.1142508895565199    5    4    2    1
 -1.02695629777827e-15    5    4    2    2
 -0.1259175096907477    5    4    3    2
 0.01295036402027738    5    4    4    1
 -0.1008876166330323    5    4    4    3
 -0.02511088461133613    5    4    5    2
 0.1394319660914917    5    4    5    4
 0.02265733206896496    5    4    6    1
 0.004797658017307174    5    4    6    3
 0.124954782050936    5    4    6    5
 -2.05391259555654e-15    5    4    6    6
 0.4893646143905005    5    5    1    1
 0.4839835418942967    5    5    2    2
 -0.0156808119311742    5    5    3    1
 0.4670567357750184    5    5    3    3
 -0.05466156884931522    5    5    4    2
 0.4873151991327344    5    5    4    4
 0.0350871940750553    5    5    5    1
 0.05661502752679107    5    5    5    3
 0.5410029760921051    5    5    5    5
 -0.04025102673223793    5    5    6    2
 -0.0111420171086803    5    5    6    4
 1.443289932012704e-15    5    5    6    5
 0.5681077172889482    5    5    6    6
 0.003904893549048719    6    1    2    1
 -0.02573813403722734    6    1    3    2
 -0.02983196001618717    6    1    4    1
 0.0284561038180644    6    1    4    3
 -0.02582926793278907    6    1    5    2
 0.02265733206896512    6    1    5    4
 0.06414748281178737    6    1    6    1
 -0.02895782703165045    6    1    6    3
 -0.005564823999250556    6    1    6    5
 1.804112415015879e-15    6    1    6    6
 -0.002624016139396773    6    2    1    1
 -0.04045538031935005    6    2    2    2
 -0.03486992121874421    6    2    3    1
 0.0009785924136795658    6    2    3    3
 0.01330751516791403    6    2    4    2
 0.001149115902744816    6    2    4    4
 -0.04766635756350823    6    2    5    1
 -0.01314626528676604    6    2    5    3
 -0.04025102673223767    6    2    5    5
 0.05100007106876297    6    2    6    2
 -0.03769201920164247    6    2    6    4
 -0.003207003728876464    6    2    6    6
 -0.0563341636965799    6    3    2    1
 0.0004258912733911191    6    3    3    2
 0.06741089569149854    6    3    4    1
 -0.01260970621872292    6    3    4    3
 -0.05018298603894825    6    3    5    2
 0.004797658017307152    6    3    5    4
 -0.02895782703165041    6    3    6    1
 0.07401380106427566    6    3    6    3
 0.06844122529976675    6    3    6    5
 -0.09872861235592009    6    4    1    1
 0.002506538633770579    6    4    2    2
 0.09324618332994972    6    4    3    1
 -0.02716766574170786    6    4    3    3
 0.06494653467774344    6    4    4    2
 -0.0329914840217931    6    4    4    4
 0.03786291570352791    6    4    5    1
 -0.07065207410010041    6    4    5    3
 -0.01114201710868155    6    4    5    5
 -0.03769201920164236    6    4    6    2
 0.1079695034392762    6    4    6    4
 -0.1280684483929601    6    4    6    6
 1.227316859253591e-15    6    5    1    1
 -0.1432378581080245    6    5    2    1
 -0.1113549674901142    6    5    3    2
 0.06338645793956135    6    5    4    1
 -0.1006850858074499    6    5    4    3
 -0.0608309355762978    6    5    5    2
 0.1249547820509364    6    5    5    4
 -0.005564823999250667    6    5    6    1
 0.06844122529976612    6    5    6    3
 0.1746899947210612    6    5    6    5
 0.5982104317165824    6    6    1    1
 0.4914649546417437    6    6    2    2
 -0.1110211512565643    6    6    3    1
 0.505205188871891    6    6    3    3
 -0.1237565139112106    6    6    4    2
 0.5331216095802211    6    6    4    4
 -0.0024400952411028    6    6    5    1
 0.1337470496330708    6    6    5    3
 -1.984523656517467e-15    6    6    5    4
 0.5681077172889468    6    6    5    5
 -0.003207003728876734    6    6    6    2
 1.422473250300982e-15    6    6    6    3
 -0.1280684483929599    6    6    6    4
 2.005340338229189e-15    6    6    6    5
 0.7313801288597065    6    6    6    6
 -3.033719251360277    1    1  0  0
 -2.652188373573991    2    2  0  0
 0.1972907564058651    3    1  0  0
 -2.328088033179467    3    3  0  0
 0.3017213676222937    4    2  0  0
 -1.926698002415475    4    4  0  0
 -0.06707594254952032    5    1  0  0
 -1.023486850826316e-15    5    2  0  0
 -0.2555213788760889    5    3  0  0
 1.054711873393899e-15    5    4  0  0
 -1.317040263893688    5    5  0  0
 1.417269079873051e-15    6    1  0  0
 0.04807700783102449    6    2  0  0
 -1.644517855226013e-15    6    3  0  0
 0.2176453309336119    6    4  0  0
 -2.955968803064479e-15    6    5  0  0
 -0.5173173115372544    6    6  0  0
 7.082833438467693  0  0  0  0
