 &FCI NORB=   6,NELEC= 6,MS2=0,
  ORBSYM=1,1,1,1,1,1,
  ISYM=1,
 &END
 0.3343055922400717    1    1    1    1
 0.2637345171130517    1    1    2    2
 -0.06754618429270126    1    1    3    1
 0.2917611234145292    1    1    3    3
 0.06113848635374607    1    1    4    2
 0.2946224898871799    1    1    4    4
 0.008553487356432471    1    1    5    1
 0.06313528841718444    1    1    5    3
 0.2714225934396621    1    1    5    5
 -0.009635600807477961    1    1    6    2
 0.07025896249598981    1    1    6    4
 0.3492814933085504    1    1    6    6
 0.1208692022742013    2    1    2    1
 0.09592332274104459    2    1    3    2
 0.04392495229620998    2    1    4    1
 -0.06882236080977205    2    1    4    3
 0.03428521333192099    2    1    5    2
 0.09728269400712405    2    1    5    4
 0.0007024873383635289    2    1    6    1
 -0.04512160480974141    2    1    6    3
 -0.1256666190410045    2    1    6    5
 0.2637345171130517    2    2    1    1
 0.3068405893571867    2    2    2    2
 0.04249037759579041    2    2    3    1
 0.2683807670992907    2    2    3    3
 0.0007104438040952052    2    2    4    2
 0.2701309057724576    2    2    4    4
 0.03203568742811628    2    2    5    1
 0.002454509637719052    2    2    5    3
 0.3134587815142781    2    2    5    5
 -0.03315237302866263    2    2    6    2
 -0.04091376615855843    2    2    6    4
 0.2768067383655135    2    2    6    6
 -0.06754618429270129    3    1    1    1
 0.04249037759579041    3    1    2    2
 0.1070576638714591    3    1    3    1
 -0.02547428079667824    3    1    3    3
 -0.05389499404563836    3    1    4    2
 -0.02598944440618169    3    1    4    4
 0.02752353123219208    3    1    5    1
 -0.05470637494791851    3    1    5    3
 0.04117481460131232    3    1    5    5
 -0.0271727181422887    3    1    6    2
 -0.1082469880547    3    1    6    4
 -0.07016862808278737    3    1    6    6
 0.09592332274104459    3    2    2    1
 0.1168116410389997    3    2    3    2
 -0.01851954121791571    3    2    4    1
 -0.06300490376540721    3    2    4    3
 -0.00551209087672332    3    2    5    2
 0.1161809577623832    3    2    5    4
 -0.02288282126049997    3    2    6    1
 0.01573218760692888    3    2    6    3
 -0.1013242916959561    3    2    6    5
 0.2917611234145292    3    3    1    1
 0.2683807670992907    3    3    2    2
 -0.02547428079667826    3    3    3    1
 0.2953005166370674    3    3    3    3
 0.0001132535659192184    3    3    4    2
 0.2945365151559955    3    3    4    4
 -0.01849907033010346    3    3    5    1
 0.004347764862909949    3    3    5    3
 0.2767626356375137    3    3    5    5
 0.01566081488979524    3    3    6    2
 0.02652500969166802    3    3    6    4
 0.3067859830007095    3    3    6    6
 0.04392495229620998    4    1    2    1
 -0.01851954121791571    4    1    3    2
 0.08659583888326056    4    1    4    1
 -0.01417168252401417    4    1    4    3
 0.05616650175451285    4    1    5    2
 -0.0165680966565071    4    1    5    4
 0.03147012471522605    4    1    6    1
 -0.08597059783896424    4    1    6    3
 -0.04498728538414488    4    1    6    5
 0.06113848635374607    4    2    1    1
 0.0007104438040952329    4    2    2    2
 -0.05389499404563834    4    2    3    1
 0.0001132535659192466    4    2    3    3
 0.08274298444191543    4    2    4    2
 0.003207846986762962    4    2    4    4
 0.039091350963295    4    2    5    1
 0.08177294852136099    4    2    5    3
 0.0007710740573018543    4    2    5    5
 -0.03814897471539814    4    2    6    2
 0.05677848656347063    4    2    6    4
 0.06435436659563651    4    2    6    6
 -0.06882236080977205    4    3    2    1
 -0.06300490376540721    4    3    3    2
 -0.01417168252401418    4    3    4    1
 0.1033820614608494    4    3    4    3
 0.05054719877969525    4    3    5    2
 -0.06505132489924564    4    3    5    4
 -0.05986295194661284    4    3    6    1
 0.01428961471480783    4    3    6    3
 0.07318180863749529    4    3    6    5
 0.2946224898871799    4    4    1    1
 0.2701309057724575    4    4    2    2
 -0.02598944440618171    4    4    3    1
 0.2945365151559955    4    4    3    3
 0.00320784698676296    4    4    4    2
 0.3016558292657234    4    4    4    4
 -0.01655600816400523    4    4    5    1
 0.002183408887175779    4    4    5    3
 0.2804311779780767    4    4    5    5
 0.01771857119032747    4    4    6    2
 0.02768282593217152    4    4    6    4
 0.3112867144716669    4    4    6    6
 0.008553487356432476    5    1    1    1
 0.03203568742811628    5    1    2    2
 0.02752353123219208    5    1    3    1
 -0.01849907033010346    5    1    3    3
 0.039091350963295    5    1    4    2
 -0.01655600816400523    5    1    4    4
 0.05776201398395114    5    1    5    1
 0.03796173839125536    5    1    5    3
 0.03196325049833967    5    1    5    5
 -0.05704979095015003    5    1    6    2
 -0.02675968137190867    5    1    6    4
 0.00935396672212932    5    1    6    6
 0.03428521333192098    5    2    2    1
 -0.005512090876723328    5    2    3    2
 0.05616650175451283    5    2    4    1
 0.05054719877969527    5    2    4    3
 0.1017410801605716    5    2    5    2
 -0.006322470842623822    5    2    5    4
 -0.04576580119410062    5    2    6    1
 -0.05797198404615629    5    2    6    3
 -0.03548938359332594    5    2    6    5
 0.06313528841718441    5    3    1    1
 0.002454509637719076    5    3    2    2
 -0.05470637494791851    5    3    3    1
 0.004347764862909938    5    3    3    3
 0.08177294852136101    5    3    4    2
 0.002183408887175766    5    3    4    4
 0.03796173839125536    5    3    5    1
 0.0848669330834384    5    3    5    3
 0.002241978126062034    5    3    5    5
 -0.0400289805652413    5    3    6    2
 0.0575996224953086    5    3    6    4
 0.06759502466489556    5    3    6    6
 0.09728269400712403    5    4    2    1
 0.1161809577623832    5    4    3    2
 -0.01656809665650711    5    4    4    1
 -0.06505132489924566    5    4    4    3
 -0.006322470842623825    5    4    5    2
 0.1212469307734808    5    4    5    4
 -0.02199326612200105    5    4    6    1
 0.01763819354483797    5    4    6    3
 -0.1041244256558625    5    4    6    5
 0.271422593439662    5    5    1    1
 0.313458781514278    5    5    2    2
 0.04117481460131232    5    5    3    1
 0.2767626356375137    5    5    3    3
 0.0007710740573018057    5    5    4    2
 0.2804311779780767    5    5    4    4
 0.0319632504983397    5    5    5    1
 0.002241978126062014    5    5    5    3
 0.3273935680387782    5    5    5    5
 -0.03339162879538483    5    5    6    2
 -0.04362876315290738    5    5    6    4
 0.2887587243447879    5    5    6    6
 0.0007024873383635307    6    1    2    1
 -0.02288282126049998    6    1    3    2
 0.03147012471522607    6    1    4    1
 -0.05986295194661283    6    1    4    3
 -0.04576580119410061    6    1    5    2
 -0.02199326612200107    6    1    5    4
 0.08025818984582306    6    1    6    1
 -0.03071844088694966    6    1    6    3
 -0.0008296944583048842    6    1    6    5
 -0.009635600807477964    6    2    1    1
 -0.03315237302866261    6    2    2    2
 -0.02717271814228871    6    2    3    1
 0.01566081488979525    6    2    3    3
 -0.03814897471539815    6    2    4    2
 0.01771857119032749    6    2    4    4
 -0.05704979095015004    6    2    5    1
 -0.04002898056524131    6    2    5    3
 -0.03339162879538481    6    2    5    5
 0.05866740827663085    6    2    6    2
 0.02713182359746324    6    2    6    4
 -0.01098139018373581    6    2    6    6
 -0.04512160480974138    6    3    2    1
 0.01573218760692888    6    3    3    2
 -0.08597059783896427    6    3    4    1
 0.01428961471480782    6    3    4    3
 -0.0579719840461563    6    3    5    2
 0.01763819354483798    6    3    5    4
 -0.03071844088694967    6    3    6    1
 0.08938231449793321    6    3    6    3
 0.04802588666755847    6    3    6    5
 0.07025896249598979    6    4    1    1
 -0.04091376615855843    6    4    2    2
 -0.1082469880547    6    4    3    1
 0.02652500969166804    6    4    3    3
 0.05677848656347065    6    4    4    2
 0.02768282593217154    6    4    4    4
 -0.02675968137190868    6    4    5    1
 0.05759962249530859    6    4    5    3
 -0.04362876315290734    6    4    5    5
 0.02713182359746326    6    4    6    2
 0.1147807533982388    6    4    6    4
 0.07525104037243349    6    4    6    6
 -0.1256666190410045    6    5    2    1
 -0.1013242916959561    6    5    3    2
 -0.04498728538414487    6    5    4    1
 0.07318180863749528    6    5    4    3
 -0.03548938359332597    6    5    5    2
 -0.1041244256558626    6    5    5    4
 -0.0008296944583048816    6    5    6    1
 0.04802588666755847    6    5    6    3
 0.1364176717899236    6    5    6    5
 0.3492814933085503    6    6    1    1
 0.2768067383655135    6    6    2    2
 -0.0701686280827874    6    6    3    1
 0.3067859830007095    6    6    3    3
 0.06435436659563649    6    6    4    2
 0.3112867144716669    6    6    4    4
 0.009353966722129309    6    6    5    1
 0.06759502466489557    6    6    5    3
 0.2887587243447879    6    6    5    5
 -0.01098139018373581    6    6    6    2
 0.07525104037243349    6    6    6    4
 0.3745341824098793    6    6    6    6
 -1.654090303313409    1    1  0  0
 -1.501999287914971    2    2  0  0
 0.1039630315855031    3    1  0  0
 -1.453858930978532    3    3  0  0
 -0.14229387663108    4    2  0  0
 -1.363581033942219    4    4  0  0
 -0.05604788383587078    5    1  0  0
 -0.1135159184532438    5    3  0  0
 -1.237882237770883    5    5  0  0
 0.03753661834623651    6    2  0  0
 -0.1041296460754279    6    4  0  0
 -1.261093235957544    6    6  0  0
 2.970220474196128  0  0  0  0
