 &FCI NORB=   6,NELEC= 6,MS2=0,
  ORBSYM=1,1,1,1,1,1,
  ISYM=1,
 &END
 0.2744556607110721    1    1    1    1
 -1.946359740045978e-15    1    1    2    1
 0.2094047854913985    1    1    2    2
 0.06142266018666742    1    1    3    1
 2.432082313319484e-15    1    1    3    2
 0.2504752414931036    1    1    3    3
 -1.738192922928761e-15    1    1    4    1
 0.04575769308387845    1    1    4    2
 -1.429412144204889e-15    1    1    4    3
 0.2524712834516091    1    1    4    4
 0.01118183706637694    1    1    5    1
 -0.04723165267433084    1    1    5    3
 -1.242062008799394e-15    1    1    5    4
 0.2130483134800987    1    1    5    5
 -0.01232734310803887    1    1    6    2
 -1.006139616066548e-15    1    1    6    3
 0.06328426056852486    1    1    6    4
 3.257810687884444e-15    1    1    6    5
 0.2818640146020984    1    1    6    6
 -1.937686122666094e-15    2    1    1    1
 0.1107201223137401    2    1    2    1
 1.47798440153224e-15    2    1    2    2
 1.880440247958859e-15    2    1    3    1
 -0.0977244797053575    2    1    3    2
 0.03635624533176844    2    1    4    1
 0.05121868271591848    2    1    4    3
 0.02414679089681286    2    1    5    2
 0.09823625457727256    2    1    5    4
 -3.070460552478949e-15    2    1    5    5
 0.001113945977241413    2    1    6    1
 0.03737475879050955    2    1    6    3
 -0.1149258495014543    2    1    6    5
 2.933417397876781e-15    2    1    6    6
 0.2094047854913986    2    2    1    1
 1.464106613724425e-15    2    2    2    1
 0.2696099596157858    2    2    2    2
 -0.05926526733659811    2    2    3    1
 -2.456368441983159e-15    2    2    3    2
 0.2171301587991641    2    2    3    3
 -0.006306311431496368    2    2    4    2
 1.054711873393899e-15    2    2    4    3
 0.2174982587600136    2    2    4    4
 0.02554782586229204    2    2    5    1
 0.005020289707144666    2    2    5    3
 1.262878690511116e-15    2    2    5    4
 0.274768299501808    2    2    5    5
 -0.02646458572745877    2    2    6    2
 -0.06031628658283096    2    2    6    4
 -2.671474153004283e-15    2    2    6    5
 0.216194236763306    2    2    6    6
 0.06142266018666744    3    1    1    1
 1.880440247958859e-15    3    1    2    1
 -0.05926526733659812    3    1    2    2
 0.1170980534679184    3    1    3    1
 0.03446630802086918    3    1    3    3
 0.0433693716728184    3    1    4    2
 0.03597556938122093    3    1    4    4
 -0.0207615099101908    3    1    5    1
 -0.04359328684489103    3    1    5    3
 2.435551760271437e-15    3    1    5    4
 -0.0606557487254227    3    1    5    5
 0.02051802796868277    3    1    6    2
 0.1198855102179423    3    1    6    4
 0.06215161886581053    3    1    6    6
 2.4234086959396e-15    3    2    1    1
 -0.0977244797053575    3    2    2    1
 -2.484124017598788e-15    3    2    2    2
 0.1127725920842448    3    2    3    2
 0.01652867335382775    3    2    4    1
 -0.04168517184999486    3    2    4    3
 0.01061712376831667    3    2    5    2
 -0.1136833605710668    3    2    5    4
 1.623701173514291e-15    3    2    5    5
 0.01822675106340092    3    2    6    1
 0.01578821075570169    3    2    6    3
 2.156261280639171e-15    3    2    6    4
 0.1017669551613426    3    2    6    5
 -1.408595462493167e-15    3    2    6    6
 0.2504752414931036    3    3    1    1
 0.2171301587991641    3    3    2    2
 0.03446630802086922    3    3    3    1
 0.2506311829735936    3    3    3    3
 0.00160861309994071    3    3    4    2
 0.2521288712873161    3    3    4    4
 -0.01665311700955813    3    3    5    1
 -0.002966015950451012    3    3    5    3
 0.221351753345411    3    3    5    5
 0.01564845220126633    3    3    6    2
 0.0353353112620232    3    3    6    4
 0.2577701341611298    3    3    6    6
 -1.7277845820729e-15    4    1    1    1
 0.03635624533176844    4    1    2    1
 0.01652867335382773    4    1    3    2
 0.1015239126450505    4    1    4    1
 0.02358778291325209    4    1    4    3
 0.06677346475645786    4    1    5    2
 2.021820211250969e-15    4    1    5    3
 -0.01754314161326872    4    1    5    4
 0.03600452054423114    4    1    6    1
 0.1026902810160341    4    1    6    3
 -0.03761504862419471    4    1    6    5
 0.04575769308387845    4    2    1    1
 -0.006306311431496372    4    2    2    2
 0.0433693716728184    4    2    3    1
 0.001608613099940735    4    2    3    3
 0.08250129803153697    4    2    4    2
 0.001665010947697389    4    2    4    4
 0.05578142676990523    4    2    5    1
 -0.08351117960707524    4    2    5    3
 -0.006981377447071353    4    2    5    5
 -0.05663575424694632    4    2    6    2
 1.755540157688529e-15    4    2    6    3
 0.04523289920467619    4    2    6    4
 0.04710321784238551    4    2    6    6
 -1.415534356397075e-15    4    3    1    1
 0.05121868271591848    4    3    2    1
 1.047772979489991e-15    4    3    2    2
 -0.04168517184999486    4    3    3    2
 0.02358778291325207    4    3    4    1
 0.1040709404744344    4    3    4    3
 1.606353938754523e-15    4    3    5    1
 -0.06485875633069738    4    3    5    2
 0.04247150304173265    4    3    5    4
 -1.325328735646281e-15    4    3    5    5
 0.08336144285334207    4    3    6    1
 1.415534356397075e-15    4    3    6    2
 0.02298318590802465    4    3    6    3
 -0.05347688521877649    4    3    6    5
 1.144917494144693e-15    4    3    6    6
 0.2524712834516091    4    4    1    1
 0.2174982587600136    4    4    2    2
 0.03597556938122094    4    4    3    1
 0.2521288712873161    4    4    3    3
 0.00166501094769738    4    4    4    2
 0.2552579296576671    4    4    4    4
 -0.01751585222300876    4    4    5    1
 -0.002163927577277215    4    4    5    3
 0.2222154832650021    4    4    5    5
 0.01718870819566802    4    4    6    2
 0.03707167144332439    4    4    6    4
 0.2601413610503299    4    4    6    6
 0.01118183706637693    5    1    1    1
 0.02554782586229204    5    1    2    2
 -0.0207615099101908    5    1    3    1
 -0.01665311700955811    5    1    3    3
 0.05578142676990525    5    1    4    2
 1.620231726562338e-15    5    1    4    3
 -0.01751585222300875    5    1    4    4
 0.06435896204968677    5    1    5    1
 -1.864827736675068e-15    5    1    5    2
 -0.05668636014290643    5    1    5    3
 0.02578031523687553    5    1    5    5
 1.649722025653944e-15    5    1    6    1
 -0.06510606217441965    5    1    6    2
 -0.02065707658620048    5    1    6    4
 0.01203694683596677    5    1    6    6
 0.02414679089681286    5    2    2    1
 0.01061712376831666    5    2    3    2
 0.06677346475645785    5    2    4    1
 -0.06485875633069733    5    2    4    3
 -1.856154119295184e-15    5    2    5    1
 0.1251961580093367    5    2    5    2
 -0.01211144150443256    5    2    5    4
 -0.05714581571925132    5    2    6    1
 -1.700029006457271e-15    5    2    6    2
 0.06902840051684861    5    2    6    3
 -0.02499776742408771    5    2    6    5
 -0.04723165267433083    5    3    1    1
 0.005020289707144701    5    3    2    2
 -0.04359328684489101    5    3    3    1
 -0.002966015950451018    5    3    3    3
 2.040034807748725e-15    5    3    4    1
 -0.08351117960707524    5    3    4    2
 -0.002163927577277213    5    3    4    4
 -0.05668636014290643    5    3    5    1
 0.08513474972004917    5    3    5    3
 0.005734528955967381    5    3    5    5
 0.05801372759641471    5    3    6    2
 -0.04545725944481675    5    3    6    4
 -0.04892438422383245    5    3    6    6
 -1.229918944467556e-15    5    4    1    1
 0.09823625457727256    5    4    2    1
 1.262878690511116e-15    5    4    2    2
 2.435551760271437e-15    5    4    3    1
 -0.1136833605710668    5    4    3    2
 -0.01754314161326873    5    4    4    1
 0.04247150304173265    5    4    4    3
 -0.01211144150443254    5    4    5    2
 0.1156695922579517    5    4    5    4
 -2.907396545737129e-15    5    4    5    5
 -0.01821026647363563    5    4    6    1
 -0.01746951258416524    5    4    6    3
 -0.1026130451557709    5    4    6    5
 2.655861641720492e-15    5    4    6    6
 0.2130483134800986    5    5    1    1
 -3.087807787238717e-15    5    5    2    1
 0.274768299501808    5    5    2    2
 -0.06065574872542267    5    5    3    1
 1.616762279610384e-15    5    5    3    2
 0.221351753345411    5    5    3    3
 -0.00698137744707137    5    5    4    2
 -1.332267629550188e-15    5    5    4    3
 0.2222154832650022    5    5    4    4
 0.02578031523687552    5    5    5    1
 0.005734528955967384    5    5    5    3
 -2.886579864025407e-15    5    5    5    4
 0.2814299791001692    5    5    5    5
 -0.02671552348566687    5    5    6    2
 -0.06247838905909675    5    5    6    4
 2.005340338229189e-15    5    5    6    5
 0.220758149505657    5    5    6    6
 0.00111394597724141    6    1    2    1
 0.01822675106340091    6    1    3    2
 0.03600452054423115    6    1    4    1
 0.08336144285334207    6    1    4    3
 1.654058834343886e-15    6    1    5    1
 -0.05714581571925132    6    1    5    2
 -0.01821026647363564    6    1    5    4
 0.09467855999652149    6    1    6    1
 1.519617764955683e-15    6    1    6    2
 0.03521339042408103    6    1    6    3
 -0.001228788044931942    6    1    6    5
 -0.01232734310803889    6    2    1    1
 -0.02646458572745878    6    2    2    2
 0.02051802796868277    6    2    3    1
 0.0156484522012663    6    2    3    3
 -0.05663575424694634    6    2    4    2
 1.414666994659086e-15    6    2    4    3
 0.01718870819566802    6    2    4    4
 -0.06510606217441965    6    2    5    1
 -1.708702623837155e-15    6    2    5    2
 0.05801372759641472    6    2    5    3
 -0.02671552348566689    6    2    5    5
 1.523087211907637e-15    6    2    6    1
 0.06622391877701547    6    2    6    2
 0.02048941578616034    6    2    6    4
 -0.01340959113667203    6    2    6    6
 -1.006139616066548e-15    6    3    1    1
 0.03737475879050955    6    3    2    1
 0.01578821075570167    6    3    3    2
 0.1026902810160341    6    3    4    1
 1.746866540308645e-15    6    3    4    2
 0.02298318590802468    6    3    4    3
 0.06902840051684861    6    3    5    2
 -0.01746951258416524    6    3    5    4
 0.03521339042408103    6    3    6    1
 0.1046170342140721    6    3    6    3
 -0.03904166921422721    6    3    6    5
 1.4883927423881e-15    6    3    6    6
 0.06328426056852485    6    4    1    1
 -0.06031628658283096    6    4    2    2
 0.1198855102179423    6    4    3    1
 2.157996004115148e-15    6    4    3    2
 0.03533531126202318    6    4    3    3
 0.04523289920467619    6    4    4    2
 0.03707167144332441    6    4    4    4
 -0.02065707658620049    6    4    5    1
 -0.04545725944481674    6    4    5    3
 -0.06247838905909676    6    4    5    5
 0.02048941578616035    6    4    6    2
 0.12377698678088    6    4    6    4
 2.085137618124122e-15    6    4    6    5
 0.06445782086256241    6    4    6    6
 3.261280134836397e-15    6    5    1    1
 -0.1149258495014543    6    5    2    1
 -2.67841304690819e-15    6    5    2    2
 0.1017669551613426    6    5    3    2
 -0.03761504862419471    6    5    4    1
 -0.0534768852187765    6    5    4    3
 -0.02499776742408772    6    5    5    2
 -0.1026130451557709    6    5    5    4
 2.026157019940911e-15    6    5    5    5
 -0.001228788044931933    6    5    6    1
 -0.03904166921422721    6    5    6    3
 2.071259830316308e-15    6    5    6    4
 0.1203790447689092    6    5    6    5
 -1.788499903732088e-15    6    5    6    6
 0.2818640146020984    6    6    1    1
 2.921274333544943e-15    6    6    2    1
 0.216194236763306    6    6    2    2
 0.06215161886581051    6    6    3    1
 -1.405126015541214e-15    6    6    3    2
 0.2577701341611298    6    6    3    3
 0.04710321784238554    6    6    4    2
 1.110223024625157e-15    6    6    4    3
 0.2601413610503298    6    6    4    4
 0.01203694683596676    6    6    5    1
 -0.04892438422383245    6    6    5    3
 2.643718577388654e-15    6    6    5    4
 0.220758149505657    6    6    5    5
 -0.01340959113667202    6    6    6    2
 1.509209424099822e-15    6    6    6    3
 0.06445782086256241    6    6    6    4
 -1.790234627208065e-15    6    6    6    5
 0.2912982599734129    6    6    6    6
 -1.244778428351708    1    1  0  0
 -1.145236868288376    2    2  0  0
 -0.07508289854966979    3    1  0  0
 -1.157246383146274    3    3  0  0
 1.068589661201713e-15    4    1  0  0
 -0.09375517637431657    4    2  0  0
 -1.130080081334101    4    4  0  0
 -0.04841771360469416    5    1  0  0
 0.07724438640803521    5    3  0  0
 -1.063734578345552    5    5  0  0
 0.0367245413931621    6    2  0  0
 -0.07425460462752538    6    4  0  0
 -1.249000902703301e-15    6    5  0  0
 -1.124442677063166    6    6  0  0
 2.046151882224  0  0  0  0
