 &FCI NORB=   4,NELEC= 4,MS2=0,
  ORBSYM=1,1,1,1,
  ISYM=1,
 &END
 0.3856817296200633    1    1    1    1
 0.3448599777719921    1    1    2    2
 -0.06428978373596116    1    1    3    1
 0.3489236319092793    1    1    3    3
 0.06673499166856163    1    1    4    2
 0.4004203019656222    1    1    4    4
 0.1602094791940309    2    1    2    1
 0.07912067821440816    2    1    3    2
 -1.27675647831893e-15    2    1    3    3
 0.03461678895623734    2    1    4    1
 -0.162523290466386    2    1    4    3
 1.547373340571312e-15    2    1    4    4
 0.3448599777719921    2    2    1    1
 0.3605314990107708    2    2    2    2
 0.01691870079393906    2    2    3    1
 0.3618898063764323    2    2    3    3
 -0.01267028156354921    2    2    4    2
 0.3601076659072725    2    2    4    4
 -0.0642897837359612    3    1    1    1
 0.01691870079393906    3    1    2    2
 0.1185749126446292    3    1    3    1
 0.01475361520326348    3    1    3    3
 -0.1182943410197443    3    1    4    2
 -0.06669358500624425    3    1    4    4
 0.07912067821440816    3    2    2    1
 0.1422621198506634    3    2    3    2
 -0.08762402845629416    3    2    4    1
 -0.08288062104700369    3    2    4    3
 0.3489236319092793    3    3    1    1
 -1.262878690511116e-15    3    3    2    1
 0.3618898063764323    3    3    2    2
 0.01475361520326347    3    3    3    1
 0.3714084679396611    3    3    3    3
 -0.01545380816300319    3    3    4    2
 1.512678871051776e-15    3    3    4    3
 0.3666605755698019    3    3    4    4
 0.03461678895623733    4    1    2    1
 -0.08762402845629416    4    1    3    2
 0.1142031111699875    4    1    4    1
 -0.03410877593531565    4    1    4    3
 0.06673499166856162    4    2    1    1
 -0.01267028156354923    4    2    2    2
 -0.1182943410197443    4    2    3    1
 -0.01545380816300324    4    2    3    3
 0.1221110555246381    4    2    4    2
 0.07081062165961989    4    2    4    4
 -0.1625232904663859    4    3    2    1
 -0.08288062104700367    4    3    3    2
 1.498801083243961e-15    4    3    3    3
 -0.03410877593531563    4    3    4    1
 0.1710090300163694    4    3    4    3
 -1.040834085586084e-15    4    3    4    4
 0.4004203019656221    4    4    1    1
 1.540434446667405e-15    4    4    2    1
 0.3601076659072724    4    4    2    2
 -0.0666935850062442    4    4    3    1
 0.3666605755698019    4    4    3    3
 0.0708106216596199    4    4    4    2
 -1.054711873393899e-15    4    4    4    3
 0.4251637146363065    4    4    4    4
 -1.302565479560707    1    1  0  0
 -1.167273797672332    2    2  0  0
 0.1095773934353887    3    1  0  0
 -1.055037596380755    3    3  0  0
 -0.08617967844587079    4    2  0  0
 -1.002633641566489    4    4  0  0
 1.389758331709092  0  0  0  0
