 &FCI NORB=   4,NELEC= 4,MS2=0,
  ORBSYM=1,1,1,1,
  ISYM=1,
 &END
 0.3982397293348724    1    1    1    1
 0.3545537236641062    1    1    2    2
 -0.06631559728569764    1    1    3    1
 0.3590233730750463    1    1    3    3
 0.06878674464306411    1    1    4    2
 0.4140029681393248    1    1    4    4
 0.1593425264504976    2    1    2    1
 0.08185290084365032    2    1    3    2
 0.03571467659555631    2    1    4    1
 -0.160859486716288    2    1    4    3
 0.3545537236641063    2    2    1    1
 0.3707202202782062    2    2    2    2
 0.01640115492418653    2    2    3    1
 0.3713385318677118    2    2    3    3
 -0.01128338252102996    2    2    4    2
 0.3711054454608558    2    2    4    4
 -0.06631559728569765    3    1    1    1
 0.01640115492418655    3    1    2    2
 0.1162227288229522    3    1    3    1
 0.01296256077910187    3    1    3    3
 -0.1151483291638704    3    1    4    2
 -0.06882078287186214    3    1    4    4
 0.08185290084365032    3    2    2    1
 0.1412231879714729    3    2    3    2
 -0.08262533914010067    3    2    4    1
 -0.085636533980591    3    2    4    3
 0.3590233730750462    3    3    1    1
 0.3713385318677117    3    3    2    2
 0.01296256077910186    3    3    3    1
 0.3819426535041994    3    3    3    3
 -0.01405166949459974    3    3    4    2
 0.3785398443293375    3    3    4    4
 0.03571467659555631    4    1    2    1
 -0.0826253391401007    4    1    3    2
 0.1113843124393176    4    1    4    1
 -0.03506892635411304    4    1    4    3
 0.06878674464306415    4    2    1    1
 -0.01128338252102996    4    2    2    2
 -0.1151483291638704    4    2    3    1
 -0.01405166949459975    4    2    3    3
 0.1192342328390225    4    2    4    2
 0.07330054562354234    4    2    4    4
 -0.160859486716288    4    3    2    1
 -0.08563653398059104    4    3    3    2
 -0.03506892635411303    4    3    4    1
 0.1699335657426161    4    3    4    3
 0.4140029681393248    4    4    1    1
 0.3711054454608556    4    4    2    2
 -0.06882078287186208    4    4    3    1
 0.3785398443293375    4    4    3    3
 0.0733005456235423    4    4    4    2
 0.442061930373306    4    4    4    4
 -1.362591749493557    1    1  0  0
 -1.211557112347648    2    2  0  0
 0.1153694161643751    3    1  0  0
 -1.080269646000115    3    3  0  0
 -0.09057337829656187    4    2  0  0
 -1.00800906693309    4    4  0  0
 1.47942015956129  0  0  0  0
