 &FCI NORB=   4,NELEC= 4,MS2=0,
  ORBSYM=1,1,1,1,
  ISYM=1,
 &END
 0.3463387970405592    1    1    1    1
 0.316270195615762    1    1    2    2
 -0.05665558040373603    1    1    3    1
 0.3191894138138636    1    1    3    3
 -0.05883186875795238    1    1    4    2
 0.35735716058791    1    1    4    4
 0.1654203265036057    2    1    2    1
 0.06834015048681902    2    1    3    2
 1.693090112553364e-15    2    1    3    3
 -0.0297022982421772    2    1    4    1
 0.1691572782714941    2    1    4    3
 -2.206568261442499e-15    2    1    4    4
 0.3162701956157619    2    2    1    1
 0.329059343702688    2    2    2    2
 0.01731652443858769    2    2    3    1
 0.3317684026300751    2    2    3    3
 0.01514221658647082    2    2    4    2
 0.3270755234432429    2    2    4    4
 -0.05665558040373601    3    1    1    1
 0.01731652443858768    3    1    2    2
 0.1291653951230581    3    1    3    1
 1.252470349655255e-15    3    1    3    2
 0.01799324930576417    3    1    3    3
 0.130506032647498    3    1    4    2
 -0.05875246418023149    3    1    4    4
 0.06834015048681905    3    2    2    1
 1.221245327087672e-15    3    2    3    1
 0.1459794543941345    3    2    3    2
 0.1061284114489704    3    2    4    1
 0.07127145217762219    3    2    4    3
 -1.054711873393899e-15    3    2    4    4
 0.3191894138138636    3    3    1    1
 1.665334536937735e-15    3    3    2    1
 0.3317684026300752    3    3    2    2
 0.01799324930576421    3    3    3    1
 0.3378010669443536    3    3    3    3
 0.01763038706602012    3    3    4    2
 1.443289932012704e-15    3    3    4    3
 0.3311140360601382    3    3    4    4
 -0.02970229824217721    4    1    2    1
 0.1061284114489703    4    1    3    2
 0.1245315485884193    4    1    4    1
 -1.471045507628332e-15    4    1    4    2
 -0.02956254109596718    4    1    4    3
 -0.05883186875795242    4    2    1    1
 0.0151422165864708    4    2    2    2
 0.130506032647498    4    2    3    1
 0.01763038706602007    4    2    3    3
 -1.484923295436147e-15    4    2    4    1
 0.133343925859764    4    2    4    2
 -0.06169429139400924    4    2    4    4
 0.1691572782714941    4    3    2    1
 0.07127145217762217    4    3    3    2
 1.457167719820518e-15    4    3    3    3
 -0.02956254109596718    4    3    4    1
 0.1753996961226415    4    3    4    3
 -2.144118216307334e-15    4    3    4    4
 0.3573571605879099    4    4    1    1
 -2.164934898019055e-15    4    4    2    1
 0.3270755234432429    4    4    2    2
 -0.0587524641802315    4    4    3    1
 -1.054711873393899e-15    4    4    3    2
 0.3311140360601382    4    4    3    3
 -0.06169429139400926    4    4    4    2
 -2.123301534595612e-15    4    4    4    3
 0.3724635999427581    4    4    4    4
 -1.11405495836376    1    1  0  0
 -1.027623048591517    2    2  0  0
 0.09036268295279337    3    1  0  0
 -0.9690716355180859    3    3  0  0
 0.0728192219000787    4    2  0  0
 -0.9609263768552968    4    4  0  0
 1.118585974302439  0  0  0  0
