 &FCI NORB=   4,NELEC= 4,MS2=0,
  ORBSYM=1,1,1,1,
  ISYM=1,
 &END
 0.3385826213788725    1    1    1    1
 -1.082467449009528e-15    1    1    2    1
 0.3111017850073283    1    1    2    2
 -0.05468965400852061    1    1    3    1
 0.3137911814556476    1    1    3    3
 0.05676432660079608    1    1    4    2
 1.262878690511116e-15    1    1    4    3
 0.3487075223326421    1    1    4    4
 -1.089406342913435e-15    2    1    1    1
 0.1670475583577583    2    1    2    1
 1.006139616066548e-15    2    1    2    2
 0.06556964025290016    2    1    3    2
 0.02821535474493336    2    1    4    1
 -0.1708122468286666    2    1    4    3
 1.013078509970455e-15    2    1    4    4
 0.3111017850073283    2    2    1    1
 0.3229287639012456    2    2    2    2
 0.01694707503228911    2    2    3    1
 0.3256690201379422    2    2    3    3
 -0.01505621286018224    2    2    4    2
 -1.110223024625157e-15    2    2    4    3
 0.3209339634294707    2    2    4    4
 -0.05468965400852059    3    1    1    1
 0.01694707503228916    3    1    2    2
 0.1319472762425065    3    1    3    1
 0.01792668130855451    3    1    3    3
 -0.1334214116959039    3    1    4    2
 -0.05669292920703785    3    1    4    4
 0.06556964025290017    3    2    2    1
 0.1466745721479731    3    2    3    2
 -0.1103597740958328    3    2    4    1
 -0.06820432865811066    3    2    4    3
 0.3137911814556475    3    3    1    1
 -1.040834085586084e-15    3    3    2    1
 0.3256690201379421    3    3    2    2
 0.01792668130855447    3    3    3    1
 0.3309978068508079    3    3    3    3
 -0.01740600922626807    3    3    4    2
 0.3245163691075825    3    3    4    4
 0.02821535474493335    4    1    2    1
 -0.1103597740958328    4    1    3    2
 0.1268024910004327    4    1    4    1
 -0.0281247426762869    4    1    4    3
 0.05676432660079606    4    2    1    1
 -0.01505621286018226    4    2    2    2
 -0.133421411695904    4    2    3    1
 -0.01740600922626802    4    2    3    3
 0.1360335077608899    4    2    4    2
 0.0593887482112313    4    2    4    4
 1.304512053934559e-15    4    3    1    1
 -0.1708122468286666    4    3    2    1
 -1.068589661201713e-15    4    3    2    2
 -0.06820432865811067    4    3    3    2
 -0.02812474267628688    4    3    4    1
 0.1765296736370962    4    3    4    3
 0.3487075223326421    4    4    1    1
 1.013078509970455e-15    4    4    2    1
 0.3209339634294706    4    4    2    2
 -0.0566929292070379    4    4    3    1
 0.3245163691075825    4    4    3    3
 0.05938874821123132    4    4    4    2
 0.3620401405439885    4    4    4    4
 -1.077295745632153    1    1  0  0
 -1.00035208917625    2    2  0  0
 0.08636514616790536    3    1  0  0
 -0.9509435896961803    3    3  0  0
 -0.07025708389697741    4    2  0  0
 -0.9482116883049205    4    4  0  0
 1.066558719683721  0  0  0  0
