 &FCI NORB=   4,NELEC= 4,MS2=0,
  ORBSYM=1,1,1,1,
  ISYM=1,
 &END
 0.3314628855567918    1    1    1    1
 0.3065320060492359    1    1    2    2
 -0.05265507039277207    1    1    3    1
 0.3090007357235327    1    1    3    3
 0.05461718887290393    1    1    4    2
 0.3407057496819528    1    1    4    4
 0.1687485050627954    2    1    2    1
 0.06273553562357043    2    1    3    2
 0.02659619391386558    2    1    4    1
 -0.1724504678007118    2    1    4    3
 1.228184220991579e-15    2    1    4    4
 0.3065320060492358    2    2    1    1
 0.3173161901413762    2    2    2    2
 0.01637774008790814    2    2    3    1
 0.3200050285015721    2    2    3    3
 -0.01471273186736147    2    2    4    2
 0.3154357788721326    2    2    4    4
 -0.05265507039277202    3    1    1    1
 0.01637774008790813    3    1    2    2
 0.1347253308585817    3    1    3    1
 0.01755137488366816    3    1    3    3
 -0.1362612153247166    3    1    4    2
 -0.05455116908303624    3    1    4    4
 0.06273553562357044    3    2    2    1
 0.1472616778875808    3    2    3    2
 -0.1144212756566405    3    2    4    1
 -0.06506804530296911    3    2    4    3
 0.3090007357235326    3    3    1    1
 0.3200050285015721    3    3    2    2
 0.01755137488366815    3    3    3    1
 0.3246869930154686    3    3    3    3
 -0.01690986503496979    3    3    4    2
 0.3186085421370934    3    3    4    4
 0.02659619391386558    4    1    2    1
 -0.1144212756566405    4    1    3    2
 0.1289438967699319    4    1    4    1
 -0.02653925534439215    4    1    4    3
 0.0546171888729039    4    2    1    1
 -0.01471273186736148    4    2    2    2
 -0.1362612153247166    4    2    3    1
 -0.01690986503496982    4    2    3    3
 0.1386534391111246    4    2    4    2
 0.05701345392555322    4    2    4    4
 -0.1724504678007119    4    3    2    1
 -0.06506804530296911    4    3    3    2
 -0.02653925534439216    4    3    4    1
 0.1776582641757866    4    3    4    3
 -1.033895191682177e-15    4    3    4    4
 0.3407057496819528    4    4    1    1
 1.221245327087672e-15    4    4    2    1
 0.3154357788721326    4    4    2    2
 -0.05455116908303623    4    4    3    1
 0.3186085421370935    4    4    3    3
 0.05701345392555322    4    4    4    2
 -1.013078509970455e-15    4    4    4    3
 0.3524423198877541    4    4    4    4
 -1.043860048103762    1    1  0  0
 -0.9755443249998126    2    2  0  0
 0.08263513125568345    3    1  0  0
 -0.93398328643055    3    3  0  0
 -0.06792544894346136    4    2  0  0
 -0.9352343918455487    4    4  0  0
 1.01915610992  0  0  0  0
