 &FCI NORB=   4,NELEC= 4,MS2=0,
  ORBSYM=1,1,1,1,
  ISYM=1,
 &END
 0.3641145375277955    1    1    1    1
 0.3287734218234422    1    1    2    2
 -0.06045653106878774    1    1    3    1
 0.3322005081010493    1    1    3    3
 -0.06279780478497218    1    1    4    2
 0.3769516052707061    1    1    4    4
 0.1625068635455443    2    1    2    1
 0.07374517653751081    2    1    3    2
 -0.03232057554564353    2    1    4    1
 0.1658385883960947    2    1    4    3
 0.3287734218234422    2    2    1    1
 0.3431963868315964    2    2    2    2
 0.01747039341578339    2    2    3    1
 0.34551574399642    2    2    3    3
 0.01448886839828276    2    2    4    2
 0.3416744158630941    2    2    4    4
 -0.06045653106878777    3    1    1    1
 0.01747039341578338    3    1    2    2
 0.1237038195438117    3    1    3    1
 0.01711214144624876    3    1    3    3
 0.1244938693159879    3    1    4    2
 -0.06270794793476023    3    1    4    4
 0.0737451765375108    3    2    2    1
 0.1442694762653441    3    2    3    2
 0.09718483233336486    3    2    4    1
 0.07719750658639304    3    2    4    3
 0.3322005081010493    3    3    1    1
 0.34551574399642    3    3    2    2
 0.01711214144624876    3    3    3    1
 0.3531433620227651    3    3    3    3
 0.01718785939400866    3    3    4    2
 0.3468040759635763    3    3    4    4
 -0.03232057554564352    4    1    2    1
 0.09718483233336482    4    1    3    2
 0.1195976765443688    4    1    4    1
 -0.0320312610214529    4    1    4    3
 -0.0627978047849722    4    2    1    1
 0.01448886839828274    4    2    2    2
 0.1244938693159879    4    2    3    1
 0.01718785939400864    4    2    3    3
 0.1278039771757846    4    2    4    2
 -0.06619136426721808    4    2    4    4
 0.1658385883960947    4    3    2    1
 0.07719750658639303    4    3    3    2
 -0.03203126102145291    4    3    4    1
 0.1731751499921065    4    3    4    3
 0.3769516052707061    4    4    1    1
 0.3416744158630941    4    4    2    2
 -0.0627079479347602    4    4    3    1
 0.3468040759635763    4    4    3    3
 -0.06619136426721808    4    4    4    2
 0.3962728572987672    4    4    4    4
 -1.199092622970953    1    1  0  0
 -1.090693336326303    2    2  0  0
 0.0992654821307519    3    1  0  0
 -1.009198555469917    3    3  0  0
 0.0787818887737031    4    2  0  0
 -0.9844656442736573    4    4  0  0
 1.23951418774054  0  0  0  0
