 &FCI NORB=   4,NELEC= 4,MS2=0,
  ORBSYM=1,1,1,1,
  ISYM=1,
 &END
 0.6384802236839909    1    1    1    1
 0.557827433656531    1    1    2    2
 -0.1088686887166743    1    1    3    1
 0.589551098181889    1    1    3    3
 0.1122744453019962    1    1    4    2
 0.704170625229769    1    1    4    4
 0.1492049391475807    2    1    2    1
 0.1102094058595647    2    1    3    2
 0.05293285736631478    2    1    4    1
 -0.1368953470715865    2    1    4    3
 1.471045507628332e-15    2    1    4    4
 0.557827433656531    2    2    1    1
 0.5764465137185234    2    2    2    2
 -0.008482052363837318    2    2    3    1
 0.5747307492941256    2    2    3    3
 0.03171574277802536    2    2    4    2
 -1.845745778439323e-15    2    2    4    3
 0.6182358707409257    2    2    4    4
 -0.1088686887166744    3    1    1    1
 -0.008482052363837467    3    1    2    2
 0.1079488517961734    3    1    3    1
 -0.04706199925904456    3    1    3    3
 -0.0905515604089521    3    1    4    2
 -0.1351389442574351    3    1    4    4
 0.1102094058595647    3    2    2    1
 0.1429447916952588    3    2    3    2
 -0.02606320276979298    3    2    4    1
 -0.1033519073609077    3    2    4    3
 0.5895510981818892    3    3    1    1
 0.5747307492941258    3    3    2    2
 -0.04706199925904461    3    3    3    1
 0.6143801627586574    3    3    3    3
 -1.360023205165817e-15    3    3    4    1
 0.04237035338826062    3    3    4    2
 -1.07552855510562e-15    3    3    4    3
 0.6689453625451401    3    3    4    4
 0.05293285736631484    4    1    2    1
 -0.02606320276979288    4    1    3    2
 -1.047772979489991e-15    4    1    3    3
 0.09240461450419717    4    1    4    1
 -0.0566597962920605    4    1    4    3
 2.275957200481571e-15    4    1    4    4
 0.1122744453019959    4    2    1    1
 0.03171574277802511    4    2    2    2
 -0.09055156040895201    4    2    3    1
 0.04237035338826114    4    2    3    3
 0.09932498120345039    4    2    4    2
 1.124100812432971e-15    4    2    4    3
 0.1487059400549985    4    2    4    4
 -0.1368953470715865    4    3    2    1
 -1.35308431126191e-15    4    3    2    2
 -0.1033519073609077    4    3    3    2
 -0.05665979629206019    4    3    4    1
 0.1540519523104087    4    3    4    3
 -9.18709552877317e-15    4    3    4    4
 0.7041706252297677    4    4    1    1
 0.6182358707409245    4    4    2    2
 -0.135138944257436    4    4    3    1
 0.6689453625451409    4    4    3    3
 2.789435349370706e-15    4    4    4    1
 0.148705940054998    4    4    4    2
 -7.688294445529209e-15    4    4    4    3
 0.8597717924464778    4    4    4    4
 -2.575517754061836    1    1  0  0
 -1.986143060115407    2    2  0  0
 0.2360421967351081    3    1  0  0
 -1.295781585236294    3    3  0  0
 1.217775880135719e-15    4    1  0  0
 -0.2033317945232757    4    2  0  0
 1.221245327087672e-15    4    3  0  0
 0.04948732064954309    4    4  0  0
 4.169274995127273  0  0  0  0
