 &FCI NORB=   4,NELEC= 4,MS2=0,
  ORBSYM=1,1,1,1,
  ISYM=1,
 &END
 0.5658693132218613    1    1    1    1
 0.4952102114188385    1    1    2    2
 -0.09350183290777829    1    1    3    1
 0.5138818197798639    1    1    3    3
 0.09720244066282244    1    1    4    2
 0.6044238757856637    1    1    4    4
 0.1550795888184862    2    1    2    1
 0.1055231575227115    2    1    3    2
 0.04831042891288092    2    1    4    1
 -0.1440476832255161    2    1    4    3
 0.4952102114188385    2    2    1    1
 0.5132836064757975    2    2    2    2
 0.002438111794514579    2    2    3    1
 0.507103398037867    2    2    3    3
 0.01718573406276239    2    2    4    2
 0.5355387669131813    2    2    4    4
 -0.09350183290777835    3    1    1    1
 0.002438111794514562    3    1    2    2
 0.1070302872081726    3    1    3    1
 -0.02500416642515928    3    1    3    3
 -0.09300015536942879    3    1    4    2
 -0.1028538423582047    3    1    4    4
 0.1055231575227115    3    2    2    1
 0.1389501083053756    3    2    3    2
 -0.03833047285164165    3    2    4    1
 -0.1033638451119983    3    2    4    3
 0.513881819779864    3    3    1    1
 0.5071033980378671    3    3    2    2
 -0.02500416642515924    3    3    3    1
 0.534748337687996    3    3    3    3
 0.02026850258240227    3    3    4    2
 0.563418175972048    3    3    4    4
 0.04831042891288093    4    1    2    1
 -0.03833047285164162    4    1    3    2
 0.09312992016956428    4    1    4    1
 -0.04647737768226424    4    1    4    3
 0.09720244066282252    4    2    1    1
 0.01718573406276254    4    2    2    2
 -0.09300015536942878    4    2    3    1
 0.02026850258240236    4    2    3    3
 0.1009374839005369    4    2    4    2
 0.1138479254306613    4    2    4    4
 -0.1440476832255161    4    3    2    1
 -0.1033638451119983    4    3    3    2
 -0.04647737768226413    4    3    4    1
 0.1572959612393892    4    3    4    3
 0.604423875785664    4    4    1    1
 0.5355387669131814    4    4    2    2
 -0.1028538423582046    4    4    3    1
 0.5634181759720471    4    4    3    3
 0.1138479254306612    4    4    4    2
 0.69402358768177    4    4    4    4
 -2.181948032214116    1    1  0  0
 -1.77334883803384    2    2  0  0
 0.194148787685702    3    1  0  0
 -1.312749385168257    3    3  0  0
 -0.1632801680582779    4    2  0  0
 -0.6257027114304093    4    4  0  0
 3.05746832976  0  0  0  0
