 &FCI NORB=   4,NELEC= 4,MS2=0,
  ORBSYM=1,1,1,1,
  ISYM=1,
 &END
 0.3188534805955732    1    1    1    1
 0.2988637570832626    1    1    2    2
 -0.04833764729824969    1    1    3    1
 0.3009104264999859    1    1    3    3
 0.05004856853051957    1    1    4    2
 0.3263855447940008    1    1    4    4
 0.1722493965547415    2    1    2    1
 0.05684871318611615    2    1    3    2
 0.0229509104179128    2    1    4    1
 -0.1756244899876284    2    1    4    3
 0.2988637570832626    2    2    1    1
 0.3074011969332265    2    2    2    2
 0.01464862320699034    2    2    3    1
 0.309811421356037    2    2    3    3
 -0.01331487478249641    2    2    4    2
 0.3060415766001416    2    2    4    4
 -0.04833764729824967    3    1    1    1
 0.01464862320699034    3    1    2    2
 0.1401672005094525    3    1    3    1
 0.01596725913932374    3    1    3    3
 -0.1416671875189588    3    1    4    2
 -0.04998377227238592    3    1    4    4
 0.05684871318611619    3    2    2    1
 0.1481509912217444    3    2    3    2
 -0.1220056894189647    3    2    4    1
 -0.05859908447446678    3    2    4    3
 0.300910426499986    3    3    1    1
 0.309811421356037    3    3    2    2
 0.01596725913932374    3    3    3    1
 0.3133611964869814    3    3    3    3
 -0.01518245999390141    3    3    4    2
 0.3085090344225959    3    3    4    4
 0.0229509104179128    4    1    2    1
 -0.1220056894189647    4    1    3    2
 0.1328630119090744    4    1    4    1
 -0.02292480602628157    4    1    4    3
 0.0500485685305196    4    2    1    1
 -0.01331487478249636    4    2    2    2
 -0.1416671875189588    4    2    3    1
 -0.01518245999390139    4    2    3    3
 0.1436373696979616    4    2    4    2
 0.05200999925375617    4    2    4    4
 -0.1756244899876283    4    3    2    1
 -0.05859908447446677    4    3    3    2
 -0.02292480602628155    4    3    4    1
 0.1798648601265954    4    3    4    3
 0.3263855447940008    4    4    1    1
 0.3060415766001416    4    4    2    2
 -0.04998377227238591    4    4    3    1
 0.3085090344225959    4    4    3    3
 0.05200999925375614    4    4    4    2
 0.3353771597227793    4    4    4    4
 -0.9856397718648086    1    1  0  0
 -0.9323174284501267    2    2  0  0
 0.07588916904828766    3    1  0  0
 -0.903208216113395    3    3  0  0
 -0.06383136283418403    4    2  0  0
 -0.9092144325054832    4    4  0  0
 0.9359596927836736  0  0  0  0
