 &FCI NORB=   4,NELEC= 4,MS2=0,
  ORBSYM=1,1,1,1,
  ISYM=1,
 &END
 0.3548172698563358    1    1    1    1
 0.322127117416356    1    1    2    2
 -0.05857108166248354    1    1    3    1
 0.3252898272158926    1    1    3    3
 0.0608366256204249    1    1    4    2
 0.3667389980554527    1    1    4    4
 0.1638961969384395    2    1    2    1
 0.07106085475769799    2    1    3    2
 0.03106724352751965    2    1    4    1
 -0.1674957568573105    2    1    4    3
 0.322127117416356    2    2    1    1
 0.335784926539239    2    2    2    2
 0.01748974700095106    2    2    3    1
 0.3383605815430301    2    2    3    3
 -0.01495829388433799    2    2    4    2
 0.33395357354724    2    2    4    4
 -0.05857108166248354    3    1    1    1
 0.01748974700095106    3    1    2    2
 0.1264069568395723    3    1    3    1
 0.01772995128250994    3    1    3    3
 -0.1275259112545823    3    1    4    2
 -0.06074924742649212    3    1    4    4
 0.07106085475769799    3    2    2    1
 0.1451763924506279    3    2    3    2
 -0.1017335858584245    3    2    4    1
 -0.07427018535170449    3    2    4    3
 0.3252898272158927    3    3    1    1
 0.3383605815430301    3    3    2    2
 0.01772995128250995    3    3    3    1
 0.3451578072813158    3    3    3    3
 -0.01756498639884099    3    3    4    2
 0.3385038187453558    3    3    4    4
 0.03106724352751966    4    1    2    1
 -0.1017335858584245    4    1    3    2
 0.1221295919124816    4    1    4    1
 -0.03086137225000743    4    1    4    3
 0.06083662562042488    4    2    1    1
 -0.01495829388433799    4    2    2    2
 -0.1275259112545822    4    2    3    1
 -0.01756498639884101    4    2    3    3
 0.130596184862119    4    2    4    2
 0.06395231834622644    4    2    4    4
 -0.1674957568573105    4    3    2    1
 -0.07427018535170446    4    3    3    2
 -0.03086137225000743    4    3    4    1
 0.1742779523027885    4    3    4    3
 0.3667389980554527    4    4    1    1
 0.33395357354724    4    4    2    2
 -0.06074924742649214    4    4    3    1
 0.338503818745356    4    4    3    3
 0.06395231834622647    4    4    4    2
 0.3838281923791896    4    4    4    4
 -1.154514929478937    1    1  0  0
 -1.057635355139882    2    2  0  0
 0.09465244289461971    3    1  0  0
 -0.9884588619689471    3    3  0  0
 -0.07564771343967727    4    2  0  0
 -0.973124176016968    4    4  0  0
 1.1759493576  0  0  0  0
