 &FCI NORB=   4,NELEC= 4,MS2=0,
  ORBSYM=1,1,1,1,
  ISYM=1,
 &END
 0.3743588865657823    1    1    1    1
 0.3363103077212212    1    1    2    2
 -0.06235194975548718    1    1    3    1
 0.3400328920597123    1    1    3    3
 -0.06475352255581954    1    1    4    2
 0.3881302472199972    1    1    4    4
 0.1612691528274367    2    1    2    1
 0.07642604715457399    2    1    3    2
 -0.03349694371366359    2    1    4    1
 0.1641801499290974    2    1    4    3
 0.3363103077212212    2    2    1    1
 0.3514040810319036    2    2    2    2
 0.01727807261785662    2    2    3    1
 0.3533241958979688    2    2    3    3
 0.01373265040887009    2    2    4    2
 0.3503475731900663    2    2    4    4
 -0.06235194975548719    3    1    1    1
 0.01727807261785662    3    1    2    2
 0.1210806546494528    3    1    3    1
 0.01612899428425084    3    1    3    3
 0.121412558801658    3    1    4    2
 -0.06467513735849111    3    1    4    4
 0.07642604715457399    3    2    2    1
 0.1432904502632385    3    2    3    2
 0.09247851863434414    3    2    4    1
 0.08006887828460968    3    2    4    3
 0.3400328920597123    3    3    1    1
 0.3533241958979688    3    3    2    2
 0.01612899428425082    3    3    3    1
 0.3618555110949169    3    3    3    3
 0.01649228343189431    3    3    4    2
 0.3561388696059911    3    3    4    4
 -0.03349694371366357    4    1    2    1
 0.09247851863434411    4    1    3    2
 0.1169505465758023    4    1    4    1
 -0.03310691993035124    4    1    4    3
 -0.0647535225558195    4    2    1    1
 0.01373265040887012    4    2    2    2
 0.1214125588016581    4    2    3    1
 0.01649228343189438    4    2    3    3
 0.1249711657056913    4    2    4    2
 -0.06846161172379725    4    2    4    4
 0.1641801499290974    4    3    2    1
 0.08006887828460968    4    3    3    2
 -0.03310691993035125    4    3    4    1
 0.1720851806950049    4    3    4    3
 0.3881302472199972    4    4    1    1
 0.3503475731900663    4    4    2    2
 -0.06467513735849112    4    4    3    1
 0.3561388696059911    4    4    3    3
 -0.06846161172379731    4    4    4    2
 0.4099831998947772    4    4    4    4
 -1.248267309422734    1    1  0  0
 -1.127118627541409    2    2  0  0
 0.1042260966647948    3    1  0  0
 -1.031365888329983    3    3  0  0
 0.08227375606929005    4    2  0  0
 -0.9945066721071401    4    4  0  0
 1.310343569897143  0  0  0  0
