 &FCI NORB=   4,NELEC= 4,MS2=0,
  ORBSYM=1,1,1,1,
  ISYM=1,
 &END
 0.3132515302450443    1    1    1    1
 0.2956186878230759    1    1    2    2
 -0.0460495653457467    1    1    3    1
 0.2974633825024445    1    1    3    3
 0.04762587645098285    1    1    4    2
 0.3199685126512324    1    1    4    4
 0.1739877965355087    2    1    2    1
 0.05379787185702999    2    1    3    2
 0.02093607614980251    2    1    4    1
 -0.1771306042424732    2    1    4    3
 0.2956186878230759    2    2    1    1
 0.3030034553897237    2    2    2    2
 0.01350690258891317    2    2    3    1
 0.3052186972355501    2    2    3    3
 -0.01229921827822036    2    2    4    2
 0.3020011135903236    2    2    4    4
 -0.04604956534574671    3    1    1    1
 0.01350690258891314    3    1    2    2
 0.142782629728444    3    1    3    1
 0.01481131714388496    3    1    3    3
 -0.144208951964885    3    1    4    2
 -0.04755850139816263    3    1    4    4
 0.05379787185703    3    2    2    1
 0.1484876645786821    3    2    3    2
 -0.1255129833027399    3    2    4    1
 -0.05528213792322434    3    2    4    3
 0.2974633825024445    3    3    1    1
 0.3052186972355501    3    3    2    2
 0.01481131714388499    3    3    3    1
 0.3082794989301537    3    3    3    3
 -0.01399759516398463    3    3    4    2
 0.3041643709863487    3    3    4    4
 0.02093607614980253    4    1    2    1
 -0.1255129833027399    4    1    3    2
 0.13466063831677    4    1    4    1
 -0.02091293600919626    4    1    4    3
 0.04762587645098287    4    2    1    1
 -0.01229921827822034    4    2    2    2
 -0.144208951964885    4    2    3    1
 -0.01399759516398461    4    2    3    3
 0.1459782760614969    4    2    4    2
 0.04938105297479914    4    2    4    4
 -0.1771306042424732    4    3    2    1
 -0.05528213792322433    4    3    3    2
 -0.02091293600919625    4    3    4    1
 0.1809175879169866    4    3    4    3
 0.3199685126512324    4    4    1    1
 0.3020011135903237    4    4    2    2
 -0.04755850139816262    4    4    3    1
 0.3041643709863487    4    4    3    3
 0.04938105297479912    4    4    4    2
 0.3277823940738513    4    4    4    4
 -0.9602807928807853    1    1  0  0
 -0.9134521268521754    2    2  0  0
 0.07283377585103404    3    1  0  0
 -0.8892233414055465    3    3  0  0
 -0.06201651030810149    4    2  0  0
 -0.8964246771678424    4    4  0  0
 0.8992553911058826  0  0  0  0
