 &FCI NORB=   4,NELEC= 4,MS2=0,
  ORBSYM=1,1,1,1,
  ISYM=1,
 &END
 0.4857109956623216    1    1    1    1
 0.4260597499640761    1    1    2    2
 -0.07971717788667451    1    1    3    1
 0.4351225433018231    1    1    3    3
 0.08230808910044493    1    1    4    2
 0.5098475401987431    1    1    4    4
 0.157516098658977    2    1    2    1
 0.09646396761332368    2    1    3    2
 0.04221995244369854    2    1    4    1
 -0.1517300129601283    2    1    4    3
 0.4260597499640761    2    2    1    1
 0.4436846545226411    2    2    2    2
 0.0108069871404192    2    2    3    1
 0.4383799470442142    2    2    3    3
 0.00197482003116535    2    2    4    2
 0.4524460314023044    2    2    4    4
 -0.07971717788667451    3    1    1    1
 0.01080698714041919    3    1    2    2
 0.1081988621703365    3    1    3    1
 -0.004099850467984265    3    1    3    3
 -0.0998561705499353    3    1    4    2
 -0.08368777092501022    3    1    4    4
 0.0964639676133237    3    2    2    1
 0.1373691502138551    3    2    3    2
 -0.0557875229391043    3    2    4    1
 -0.09829389618189201    3    2    4    3
 0.435122543301823    3    3    1    1
 0.4383799470442143    3    3    2    2
 -0.004099850467984251    3    3    3    1
 0.4568591300070084    3    3    3    3
 0.0003373001366423489    3    3    4    2
 0.4673888699813445    3    3    4    4
 0.04221995244369856    4    1    2    1
 -0.05578752293910429    4    1    3    2
 0.09811628671420258    4    1    4    1
 -0.04028332653952291    4    1    4    3
 0.08230808910044497    4    2    1    1
 0.001974820031165347    4    2    2    2
 -0.09985617054993526    4    2    3    1
 0.000337300136642231    4    2    3    3
 0.1057129536105609    4    2    4    2
 0.090867077697283    4    2    4    4
 -0.1517300129601283    4    3    2    1
 -0.09829389618189199    4    3    3    2
 -0.04028332653952288    4    3    4    1
 0.1633762267301689    4    3    4    3
 0.5098475401987432    4    4    1    1
 0.4524460314023044    4    4    2    2
 -0.08368777092501009    4    4    3    1
 0.4673888699813443    4    4    3    3
 0.09086707769728301    4    4    4    2
 0.5639411671172039    4    4    4    4
 -1.778834941480613    1    1  0  0
 -1.511850536549452    2    2  0  0
 0.1545675520987951    3    1  0  0
 -1.229521594358608    3    3  0  0
 -0.1243707461787505    4    2  0  0
 -0.9331079272251342    4    4  0  0
 2.183905949828572  0  0  0  0
