 &FCI NORB=   4,NELEC= 4,MS2=0,
  ORBSYM=1,1,1,1,
  ISYM=1,
 &END
 0.5997011630159    1    1    1    1
 0.5244463441628662    1    1    2    2
 -0.1002369792971201    1    1    3    1
 0.5488109858095962    1    1    3    3
 0.1042357449469739    1    1    4    2
 0.6485528805992761    1    1    4    4
 0.1527339812967862    2    1    2    1
 0.1081428459579315    2    1    3    2
 0.05068206970192067    2    1    4    1
 -0.1407702606396795    2    1    4    3
 1.02695629777827e-15    2    1    4    4
 0.5244463441628662    2    2    1    1
 0.5427696949919212    2    2    2    2
 -0.002194088552596812    2    2    3    1
 0.5382856721854468    2    2    3    3
 0.02393757927119219    2    2    4    2
 0.5729747150375823    2    2    4    4
 -0.1002369792971201    3    1    1    1
 -0.002194088552596857    3    1    2    2
 0.1071852920441266    3    1    3    1
 -0.03474676344951836    3    1    3    3
 -0.09150405845715891    3    1    4    2
 -0.1155081782972618    3    1    4    4
 0.1081428459579315    3    2    2    1
 0.1407865467403798    3    2    3    2
 -0.03223855345419374    3    2    4    1
 -0.1038810692123417    3    2    4    3
 0.5488109858095962    3    3    1    1
 0.538285672185447    3    3    2    2
 -0.03474676344951828    3    3    3    1
 0.5708658040015928    3    3    3    3
 0.03022948319310972    3    3    4    2
 0.6098597545668911    3    3    4    4
 0.0506820697019207    4    1    2    1
 -0.0322385534541937    4    1    3    2
 0.09236392882062747    4    1    4    1
 -0.05067563261634653    4    1    4    3
 0.1042357449469739    4    2    1    1
 0.02393757927119228    4    2    2    2
 -0.09150405845715889    4    2    3    1
 0.03022948319310945    4    2    3    3
 0.1000857569705935    4    2    4    2
 0.1281095708593088    4    2    4    4
 -0.1407702606396793    4    3    2    1
 -0.1038810692123417    4    3    3    2
 -0.05067563261634644    4    3    4    1
 0.1554875942173984    4    3    4    3
 1.304512053934559e-15    4    3    4    4
 0.6485528805992764    4    4    1    1
 0.5729747150375828    4    4    2    2
 -0.1155081782972613    4    4    3    1
 0.6098597545668907    4    4    3    3
 1.137978600240785e-15    4    4    4    1
 0.1281095708593078    4    4    4    2
 0.7630341179548452    4    4    4    4
 -2.361933034264782    1    1  0  0
 -1.876261279165333    2    2  0  0
 0.2127680053470267    3    1  0  0
 -1.318022400327039    3    3  0  0
 -0.1817270089023197    4    2  0  0
 -0.3758250919697946    4    4  0  0
 3.5278480728  0  0  0  0
