 &FCI NORB=   4,NELEC= 4,MS2=0,
  ORBSYM=1,1,1,1,
  ISYM=1,
 &END
 0.4122020406498629    1    1    1    1
 0.3655401897900045    1    1    2    2
 -0.06847923368583994    1    1    3    1
 0.3705076923659708    1    1    3    3
 -0.07095935793053729    1    1    4    2
 0.429088286600122    1    1    4    4
 0.1586760767812682    2    1    2    1
 0.08464042155313137    2    1    3    2
 -0.03682652919229684    2    1    4    1
 0.15917633810482    2    1    4    3
 0.3655401897900044    2    2    1    1
 0.3821274532650764    2    2    2    2
 0.0157241866112938    2    2    3    1
 0.3818192350455141    2    2    3    3
 0.009542017982099332    2    2    4    2
 0.3835205841742253    2    2    4    4
 -0.06847923368583991    3    1    1    1
 0.01572418661129377    3    1    2    2
 0.1140651030074854    3    1    3    1
 0.01072275386643249    3    1    3    3
 0.1119889183887489    3    1    4    2
 -0.07112044381553306    3    1    4    4
 0.0846404215531314    3    2    2    1
 0.1402136424633044    3    2    3    2
 0.07749008890480819    3    2    4    1
 0.08833518324313136    3    2    4    3
 0.3705076923659709    3    3    1    1
 0.3818192350455142    3    3    2    2
 0.01072275386643251    3    3    3    1
 0.3936266003712371    3    3    3    3
 0.01225437689931899    3    3    4    2
 0.3919794309687556    3    3    4    4
 -0.03682652919229681    4    1    2    1
 0.07749008890480817    4    1    3    2
 0.108534930640139    4    1    4    1
 -0.0360170795060831    4    1    4    3
 -0.07095935793053726    4    2    1    1
 0.009542017982099322    4    2    2    2
 0.1119889183887489    4    2    3    1
 0.01225437689931896    4    2    3    3
 0.1163576952001911    4    2    4    2
 -0.07600067745370596    4    2    4    4
 0.15917633810482    4    3    2    1
 0.08833518324313133    4    3    3    2
 -0.03601707950608311    4    3    4    1
 0.1688372726049205    4    3    4    3
 0.429088286600122    4    4    1    1
 0.3835205841742253    4    4    2    2
 -0.07112044381553306    4    4    3    1
 0.3919794309687556    4    4    3    3
 -0.07600067745370598    4    4    4    2
 0.460959662454739    4    4    4    4
 -1.429039740088213    1    1  0  0
 -1.260415982493097    2    2  0  0
 0.1216741590136163    3    1  0  0
 -1.107102316078154    3    3  0  0
 0.09554853986496792    4    2  0  0
 -1.009472728227555    4    4  0  0
 1.581449136082758  0  0  0  0
