 &FCI NORB=   4,NELEC= 4,MS2=0,
  ORBSYM=1,1,1,1,
  ISYM=1,
 &END
 0.4277486616736907    1    1    1    1
 0.37798574173237    1    1    2    2
 -0.07083738425985529    1    1    3    1
 0.3835818046660947    1    1    3    3
 -0.07331421339330493    1    1    4    2
 0.4459201484836213    1    1    4    4
 0.1582026114289859    2    1    2    1
 0.08749582479760656    2    1    3    2
 -0.03799298347214085    2    1    4    1
 0.1574534284599205    2    1    4    3
 0.37798574173237    2    2    1    1
 0.3949266478580426    2    2    2    2
 0.01487323592782102    2    2    3    1
 0.393510825010442    2    2    3    3
 0.007404861813979403    2    2    4    2
 0.3975688971107292    2    2    4    4
 -0.07083738425985529    3    1    1    1
 0.01487323592782101    3    1    2    2
 0.1121444567345741    3    1    3    1
 0.007987793979208471    3    1    3    3
 0.1088371940065982    3    1    4    2
 -0.07366434954344103    3    1    4    4
 0.08749582479760656    3    2    2    1
 0.1392763427795673    3    2    3    2
 0.07222691748531157    3    2    4    1
 0.09097226344726084    3    2    4    3
 0.3835818046660947    3    3    1    1
 0.393510825010442    3    3    2    2
 0.00798779397920843    3    3    3    1
 0.4066654717771602    3    3    3    3
 0.01001581307503718    3    3    4    2
 0.4072241316138564    3    3    4    4
 -0.03799298347214089    4    1    2    1
 0.07222691748531158    4    1    3    2
 0.1057114631679614    4    1    4    1
 -0.03698240242686041    4    1    4    3
 -0.07331421339330492    4    2    1    1
 0.007404861813979393    4    2    2    2
 0.1088371940065982    4    2    3    1
 0.01001581307503718    4    2    3    3
 0.1135083862166604    4    2    4    2
 -0.07899107306520695    4    2    4    4
 0.1574534284599205    4    3    2    1
 0.09097226344726084    4    3    3    2
 -0.03698240242686042    4    3    4    1
 0.1676848949587153    4    3    4    3
 0.4459201484836212    4    4    1    1
 0.3975688971107292    4    4    2    2
 -0.07366434954344106    4    4    3    1
 0.4072241316138563    4    4    3    3
 -0.07899107306520695    4    4    4    2
 0.4821784586722385    4    4    4    4
 -1.502728811794629    1    1  0  0
 -1.314345382374157    2    2  0  0
 0.1285893560579141    3    1  0  0
 -1.135550719730344    3    3  0  0
 0.1012291563466105    4    2  0  0
 -1.00542113400957    4    4  0  0
 1.698593516533333  0  0  0  0
