 &FCI NORB=   6,NELEC= 6,MS2=0,
  ORBSYM=1,1,1,1,1,1,
  ISYM=1,
 &END
 0.5624414351078652    1    1    1    1
 0.5037582183800122    1    1    2    2
 0.5037582183800119    1    1    3    3
 0.480889799224809    1    1    4    4
 0.4808897992248109    1    1    5    5
 8.099423909335712e-15    1    1    6    1
 0.3743084937216211    1    1    6    6
 0.02354749865027675    2    1    2    1
 0.0006641023191131777    2    1    6    4
 0.005216835526057429    2    1    6    5
 0.5037582183800121    2    2    1    1
 0.5748526772350772    2    2    2    2
 0.52849551314726    2    2    3    3
 0.4724107377876923    2    2    4    4
 0.004476936766911668    2    2    5    4
 0.5070092647771414    2    2    5    5
 5.838579869294503e-15    2    2    6    1
 0.3510084586724788    2    2    6    6
 0.02354749865027674    3    1    3    1
 -0.005216835526057327    3    1    6    4
 0.0006641023191131966    3    1    6    5
 0.02317858204390846    3    2    3    2
 -0.004476936766911703    3    2    4    4
 -0.01729926349472357    3    2    5    4
 0.004476936766911767    3    2    5    5
 0.5037582183800119    3    3    1    1
 0.52849551314726    3    3    2    2
 0.5748526772350766    3    3    3    3
 0.5070092647771389    3    3    4    4
 -0.004476936766911826    3    3    5    4
 0.4724107377876939    3    3    5    5
 6.056419005478463e-15    3    3    6    1
 0.3510084586724809    3    3    6    6
 0.03579049821742811    4    1    4    1
 0.001251543862269551    4    1    6    2
 -0.009831464663194608    4    1    6    3
 0.01565319742553606    4    2    4    2
 -0.01550132038307559    4    2    4    3
 0.01550132038307567    4    2    5    2
 -0.01170656626789367    4    2    5    3
 -0.00125077195499958    4    2    6    1
 1.692785734996886e-15    4    2    6    6
 -0.01550132038307559    4    3    4    2
 0.1354500316381113    4    3    4    3
 -0.1080902679446822    4    3    5    2
 -0.01550132038307573    4    3    5    3
 0.009825400969162955    4    3    6    1
 -1.165145429793867e-14    4    3    6    6
 0.480889799224809    4    4    1    1
 0.4724107377876922    4    4    2    2
 -0.004476936766911719    4    4    3    2
 0.507009264777139    4    4    3    3
 0.4792788025955546    4    4    4    4
 0.4427778233362658    4    4    5    5
 5.71359445501786e-15    4    4    6    1
 0.3449119394545445    4    4    6    6
 0.03579049821742825    5    1    5    1
 0.009831464663194647    5    1    6    2
 0.001251543862269561    5    1    6    3
 0.01550132038307566    5    2    4    2
 -0.1080902679446821    5    2    4    3
 0.1354500316381124    5    2    5    2
 0.01550132038307578    5    2    5    3
 -0.009825400969162989    5    2    6    1
 1.153182391588437e-14    5    2    6    6
 -0.01170656626789367    5    3    4    2
 -0.01550132038307572    5    3    4    3
 0.01550132038307579    5    3    5    2
 0.01565319742553617    5    3    5    3
 -0.001250771954999589    5    3    6    1
 1.371169604447149e-15    5    3    6    6
 0.004476936766911667    5    4    2    2
 -0.01729926349472357    5    4    3    2
 -0.004476936766911825    5    4    3    3
 0.01825048962964537    5    4    5    4
 0.4808897992248109    5    5    1    1
 0.5070092647771413    5    5    2    2
 0.004476936766911778    5    5    3    2
 0.4724107377876939    5    5    3    3
 0.4427778233362657    5    5    4    4
 0.4792788025955583    5    5    5    5
 5.343532980858308e-15    5    5    6    1
 0.344911939454544    5    5    6    6
 8.06743994524739e-15    6    1    1    1
 6.126644364631926e-15    6    1    2    2
 6.092775752235963e-15    6    1    3    3
 -0.001250771954999588    6    1    4    2
 0.009825400969163015    6    1    4    3
 5.466175506208069e-15    6    1    4    4
 -0.009825400969162986    6    1    5    2
 -0.001250771954999586    6    1    5    3
 5.375417699385004e-15    6    1    5    5
 0.02341721590952586    6    1    6    1
 -4.618375994136503e-15    6    1    6    6
 0.001251543862269547    6    2    4    1
 0.009831464663194626    6    2    5    1
 0.01437071241863105    6    2    6    2
 1.447518532243634e-15    6    2    6    5
 -0.009831464663194579    6    3    4    1
 0.001251543862269558    6    3    5    1
 0.01437071241863103    6    3    6    3
 -1.469453085687494e-15    6    3    6    4
 0.0006641023191131765    6    4    2    1
 -0.005216835526057358    6    4    3    1
 -1.530450469318118e-15    6    4    6    3
 0.01767751065825732    6    4    6    4
 0.00521683552605743    6    5    2    1
 0.0006641023191131943    6    5    3    1
 1.497183303254265e-15    6    5    6    2
 0.0176775106582574    6    5    6    5
 0.3743084937216196    6    6    1    1
 0.3510084586724799    6    6    2    2
 0.3510084586724798    6    6    3    3
 1.550842787523266e-15    6    6    4    2
 -1.190993375969895e-14    6    6    4    3
 0.344911939454543    6    6    4    4
 1.18214120404473e-14    6    6    5    2
 1.504628669921071e-15    6    6    5    3
 0.3449119394545439    6    6    5    5
 -7.504413757075667e-15    6    6    6    1
 0.349218417355915    6    6    6    6
 -3.15640590682505    1    1  0  0
 -3.199809446225748    2    2  0  0
 -3.199809446225747    3    3  0  0
 4.034327463672387e-15    4    1  0  0
 -2.671474153004283e-15    4    3  0  0
 -2.559298259233051    4    4  0  0
 2.443086965370211e-15    5    2  0  0
 -2.559298259233059    5    5  0  0
 -3.522182545623309e-14    6    1  0  0
 2.360722557849908e-15    6    3  0  0
 -1.506598773198151    6    6  0  0
 -97.55739407285333  0  0  0  0
