 &FCI NORB=   6,NELEC= 6,MS2=0,
  ORBSYM=1,1,1,1,1,1,
  ISYM=1,
 &END
 0.4787100387203755    1    1    1    1
 0.4268186618732214    1    1    2    2
 0.4268186618732223    1    1    3    3
 5.76812022082783e-11    1    1    4    2
 -1.089750629144903e-10    1    1    4    3
 0.431410329035152    1    1    4    4
 -1.089953854740266e-10    1    1    5    2
 -5.766952564903623e-11    1    1    5    3
 0.4314103290351515    1    1    5    5
 1.407025946491627e-10    1    1    6    1
 -4.113864368936355e-15    1    1    6    2
 6.396096497746659e-15    1    1    6    3
 0.4825693835907713    1    1    6    6
 0.01907309390180898    2    1    2    1
 3.151689352627891e-12    2    1    4    1
 -6.694640896987626e-15    2    1    4    2
 1.282341944214098e-14    2    1    4    3
 -5.955511404349825e-12    2    1    5    1
 1.299172144578555e-14    2    1    5    2
 4.551995579530991e-15    2    1    5    3
 -1.377773110059347e-14    2    1    6    1
 2.19459505817564e-11    2    1    6    2
 0.007345562225923313    2    1    6    4
 -0.01388041081122865    2    1    6    5
 0.4268186618732213    2    2    1    1
 0.4462546188407215    2    2    2    2
 0.4133790397802832    2    2    3    3
 -1.301117559947451e-15    2    2    4    1
 1.365265556654166e-10    2    2    4    2
 -2.189159123278778e-10    2    2    4    3
 0.4246115514556286    2    2    4    4
 2.03832371068802e-15    2    2    5    1
 -2.579842274159283e-10    2    2    5    2
 -1.158489319387924e-10    2    2    5    3
 -0.01396420711645644    2    2    5    4
 0.4436088591586848    2    2    5    5
 2.411923011743174e-10    2    2    6    1
 -2.220575935868988e-15    2    2    6    2
 2.914506933233998e-15    2    2    6    3
 0.4398541065171363    2    2    6    6
 0.01907309390180901    3    1    3    1
 -5.955563051231065e-12    3    1    4    1
 1.095970428615716e-14    3    1    4    2
 -2.014775585383874e-14    3    1    4    3
 -3.151708924481573e-12    3    1    5    1
 -1.800037925103342e-14    3    1    5    2
 -1.07789660610869e-14    3    1    5    3
 2.15288023623101e-14    3    1    6    1
 2.190925968819095e-11    3    1    6    3
 -0.01388041081122869    3    1    6    4
 -0.007345562225923336    3    1    6    5
 0.01643778953021961    3    2    3    2
 1.886887315006279e-15    3    2    4    1
 -1.952935672941624e-11    3    2    4    2
 1.032073315080433e-11    3    2    4    3
 -0.01396420711645648    3    2    4    4
 -1.059959129212859e-15    3    2    5    1
 -1.032498961640752e-11    3    2    5    2
 -1.948346864241874e-11    3    2    5    3
 0.009498653851528456    3    2    5    4
 0.0139642071164565    3    2    5    5
 -7.592621715485031e-15    3    2    6    1
 0.4268186618732221    3    3    1    1
 0.4133790397802832    3    3    2    2
 0.4462546188407234    3    3    3    3
 -3.426975338803036e-15    3    3    4    1
 1.156504914688714e-10    3    3    4    2
 -2.574902414124146e-10    3    3    4    3
 0.4436088591586864    3    3    4    4
 -1.713949678408515e-15    3    3    5    1
 -2.185328529515965e-10    3    3    5    2
 -1.362642984792171e-10    3    3    5    3
 0.01396420711645651    3    3    5    4
 0.4246115514556287    3    3    5    5
 2.407681521433473e-10    3    3    6    1
 -1.876064311174412e-15    3    3    6    2
 3.4450684616422e-15    3    3    6    3
 0.4398541065171371    3    3    6    6
 3.151689294191608e-12    4    1    2    1
 -1.301117559947445e-15    4    1    2    2
 -5.95556116285692e-12    4    1    3    1
 1.886887315006276e-15    4    1    3    2
 -3.426975338803027e-15    4    1    3    3
 0.01826434344154886    4    1    4    1
 -1.460083236134817e-15    4    1    4    3
 -1.356850950842101e-15    4    1    5    2
 1.564837867443183e-15    4    1    6    1
 0.005805176529755568    4    1    6    2
 -0.01096964841987732    4    1    6    3
 -1.208154579043392e-11    4    1    6    4
 1.496950273902563e-14    4    1    6    5
 3.351961588851158e-15    4    1    6    6
 5.768115867392053e-11    4    2    1    1
 -6.694640896987627e-15    4    2    2    1
 1.3652653094476e-10    4    2    2    2
 1.095970428615717e-14    4    2    3    1
 -1.952936509069022e-11    4    2    3    2
 1.156504860952944e-10    4    2    3    3
 0.05724245092207002    4    2    4    2
 -0.07799535392336189    4    2    4    3
 -1.011157538789395e-10    4    2    4    4
 -0.07799535392336175    4    2    5    2
 -0.02530838037083361    4    2    5    3
 1.558036787189161e-11    4    2    5    4
 -8.485785381361922e-11    4    2    5    5
 0.07565684627129574    4    2    6    1
 1.147997213706164e-14    4    2    6    4
 -2.860419929596767e-15    4    2    6    5
 -4.160103568662063e-11    4    2    6    6
 -1.089750013011916e-10    4    3    1    1
 1.282341944214099e-14    4    3    2    1
 -2.1891588940039e-10    4    3    2    2
 -2.014775585383874e-14    4    3    3    1
 1.032075105581029e-11    4    3    3    2
 -2.574902243870523e-10    4    3    3    3
 -1.460083236134816e-15    4    3    4    1
 -0.0779953539233619    4    3    4    2
 0.1633495664592484    4    3    4    3
 1.911019056571834e-10    4    3    4    4
 0.1314154959080117    4    3    5    2
 0.0779953539233619    4    3    5    3
 8.025678334259469e-12    4    3    5    4
 1.603000969277263e-10    4    3    5    5
 -0.142963611855532    4    3    6    1
 -1.34846060474282e-15    4    3    6    3
 -2.175899014354296e-14    4    3    6    4
 7.863294107009792e-11    4    3    6    6
 0.4314103290351521    4    4    1    1
 0.4246115514556286    4    4    2    2
 -0.01396420711645646    4    4    3    2
 0.4436088591586864    4    4    3    3
 -1.011157537163091e-10    4    4    4    2
 1.911018916625051e-10    4    4    4    3
 0.4599012105909895    4    4    4    4
 1.601112324771409e-10    4    4    5    2
 8.470495372670163e-11    4    4    5    3
 0.4240190873734688    4    4    5    5
 -1.636573484719092e-10    4    4    6    1
 0.4437161699312189    4    4    6    6
 -5.955510521232167e-12    5    1    2    1
 2.038323710688021e-15    5    1    2    2
 -3.151710192480905e-12    5    1    3    1
 -1.059959129212858e-15    5    1    3    2
 -1.713949678408514e-15    5    1    3    3
 0.01826434344154885    5    1    5    1
 -0.01096964841987729    5    1    6    2
 -0.005805176529755568    5    1    6    3
 1.491109706445537e-14    5    1    6    4
 -1.210033986356509e-11    5    1    6    5
 -1.089953606463424e-10    5    2    1    1
 1.299172144578555e-14    5    2    2    1
 -2.579842388640021e-10    5    2    2    2
 -1.800037925103343e-14    5    2    3    1
 -1.032497988474011e-11    5    2    3    2
 -2.185328881152164e-10    5    2    3    3
 -1.356850950842099e-15    5    2    4    1
 -0.07799535392336175    5    2    4    2
 0.1314154959080117    5    2    4    3
 1.601111847271408e-10    5    2    4    4
 0.1633495664592479    5    2    5    2
 0.07799535392336177    5    2    5    3
 -8.379684750759386e-12    5    2    5    4
 1.913096079378941e-10    5    2    5    5
 -0.1429636118555318    5    2    6    1
 -1.244132371613747e-15    5    2    6    3
 -2.021763803584179e-14    5    2    6    4
 1.524468804496549e-15    5    2    6    5
 7.861143449068329e-11    5    2    6    6
 -5.766951886286066e-11    5    3    1    1
 4.551995579530992e-15    5    3    2    1
 -1.158489284083591e-10    5    3    2    2
 -1.07789660610869e-14    5    3    3    1
 -1.948346522231146e-11    5    3    3    2
 -1.362643213800234e-10    5    3    3    3
 -0.02530838037083362    5    3    4    2
 0.07799535392336189    5    3    4    3
 8.470493582127215e-11    5    3    4    4
 0.07799535392336177    5    3    5    2
 0.05724245092207003    5    3    5    3
 1.541976312938566e-11    5    3    5    4
 1.012577350479534e-10    5    3    5    5
 -0.07565684627129571    5    3    6    1
 -1.049214634715351e-14    5    3    6    4
 1.353961851206486e-15    5    3    6    5
 4.161332555058778e-11    5    3    6    6
 -0.01396420711645644    5    4    2    2
 0.009498653851528458    5    4    3    2
 0.01396420711645651    5    4    3    3
 1.558036417408987e-11    5    4    4    2
 8.025678536276827e-12    5    4    4    3
 -8.379685029433225e-12    5    4    5    2
 1.541976127607757e-11    5    4    5    3
 0.01794106160875999    5    4    5    4
 1.667729690526456e-13    5    4    6    1
 -1.90306677943475e-15    5    4    6    2
 0.4314103290351514    5    5    1    1
 0.4436088591586848    5    5    2    2
 0.01396420711645649    5    5    3    2
 0.4246115514556288    5    5    3    3
 -8.485782719271041e-11    5    5    4    2
 1.603000556187235e-10    5    5    4    3
 0.4240190873734688    5    5    4    4
 1.913096196600162e-10    5    5    5    2
 1.012577490384495e-10    5    5    5    3
 0.4599012105909881    5    5    5    5
 -1.638674003866589e-10    5    5    6    1
 -1.629486676166192e-15    5    5    6    2
 3.137556053764785e-15    5    5    6    3
 0.4437161699312183    5    5    6    6
 1.407025679777893e-10    6    1    1    1
 -1.377773110059348e-14    6    1    2    1
 2.411922670795901e-10    6    1    2    2
 2.15288023623101e-14    6    1    3    1
 -7.579792913117722e-15    6    1    3    2
 2.407681444353046e-10    6    1    3    3
 1.564837867443187e-15    6    1    4    1
 0.07565684627129571    6    1    4    2
 -0.142963611855532    6    1    4    3
 -1.636574169301577e-10    6    1    4    4
 -0.1429636118555317    6    1    5    2
 -0.07565684627129572    6    1    5    3
 1.66774030109035e-13    6    1    5    4
 -1.638673748864142e-10    6    1    5    5
 0.1828087487160261    6    1    6    1
 1.432683830415373e-15    6    1    6    3
 2.295393856367372e-14    6    1    6    4
 -1.837880550113854e-15    6    1    6    5
 -8.817715503074697e-11    6    1    6    6
 -4.113864368936355e-15    6    2    1    1
 2.194594883098158e-11    6    2    2    1
 -2.220575935868989e-15    6    2    2    2
 -1.876064311174412e-15    6    2    3    3
 0.005805176529755569    6    2    4    1
 -0.01096964841987729    6    2    5    1
 -1.903066779434751e-15    6    2    5    4
 -1.629486676166195e-15    6    2    5    5
 0.01960114085391556    6    2    6    2
 -3.858364318418562e-12    6    2    6    4
 7.290983061436914e-12    6    2    6    5
 -2.276480375238383e-15    6    2    6    6
 6.396096497746653e-15    6    3    1    1
 2.914506933233996e-15    6    3    2    2
 2.19092606042148e-11    6    3    3    1
 3.445068461642203e-15    6    3    3    3
 -0.01096964841987732    6    3    4    1
 -1.348460604742817e-15    6    3    4    3
 -0.005805176529755567    6    3    5    1
 -1.244132371613745e-15    6    3    5    2
 3.137556053764789e-15    6    3    5    5
 1.432683830415373e-15    6    3    6    1
 0.01960114085391561    6    3    6    3
 7.294472033239456e-12    6    3    6    4
 3.860353658304417e-12    6    3    6    5
 3.511195300252546e-15    6    3    6    6
 0.007345562225923315    6    4    2    1
 -0.01388041081122869    6    4    3    1
 -1.208154558436279e-11    6    4    4    1
 1.147997213706164e-14    6    4    4    2
 -2.175899014354295e-14    6    4    4    3
 1.491110494350457e-14    6    4    5    1
 -2.021763803584179e-14    6    4    5    2
 -1.049214634715351e-14    6    4    5    3
 2.295393856367372e-14    6    4    6    1
 -3.85836582952534e-12    6    4    6    2
 7.294476451363309e-12    6    4    6    3
 0.02103617139412901    6    4    6    4
 -0.01388041081122865    6    5    2    1
 -0.007345562225923336    6    5    3    1
 1.496948689561639e-14    6    5    4    1
 -2.860419929596767e-15    6    5    4    2
 -1.210033926304248e-11    6    5    5    1
 1.524468804496548e-15    6    5    5    2
 1.353961851206485e-15    6    5    5    3
 -1.837880550113854e-15    6    5    6    1
 7.29098120886998e-12    6    5    6    2
 3.860354620533846e-12    6    5    6    3
 0.02103617139412898    6    5    6    5
 0.4825693835907713    6    6    1    1
 0.4398541065171361    6    6    2    2
 0.4398541065171371    6    6    3    3
 3.351961588851166e-15    6    6    4    1
 -4.160103972799243e-11    6    6    4    2
 7.863297703535098e-11    6    6    4    3
 0.4437161699312189    6    6    4    4
 7.861146276525599e-11    6    6    5    2
 4.161333075627466e-11    6    6    5    3
 0.4437161699312183    6    6    5    5
 -8.817723461118643e-11    6    6    6    1
 -2.276480375238383e-15    6    6    6    2
 3.511195300252549e-15    6    6    6    3
 0.5065440778549265    6    6    6    6
 -2.625036764960003    1    1  0  0
 -2.491680996465899    2    2  0  0
 -1.120178777996103e-15    3    1  0  0
 -2.491680996465903    3    3  0  0
 -7.783230591120187e-15    4    1  0  0
 2.447474708522964e-11    4    2  0  0
 -4.626987790308512e-11    4    3  0  0
 -2.443738445195096    4    4  0  0
 -4.624841720697701e-11    5    2  0  0
 -2.448646570897491e-11    5    3  0  0
 -2.443738445195093    5    5  0  0
 4.126507295587611e-11    6    1  0  0
 3.443130969394693e-15    6    2  0  0
 -5.138415701800612e-15    6    3  0  0
 -2.463015014340863    6    6  0  0
 -99.44390201358596  0  0  0  0
