 &FCI NORB=   6,NELEC= 6,MS2=0,
  ORBSYM=1,1,1,1,1,1,
  ISYM=1,
 &END
 0.6439657503110603    1    1    1    1
 0.5179814644258285    1    1    2    2
 0.5369641961570839    1    1    3    3
 0.5047700258395273    1    1    4    4
 0.009733863882621938    1    1    5    4
 0.4763059280054034    1    1    5    5
 0.08921576154351049    1    1    6    2
 -2.23470715663666e-15    1    1    6    3
 0.3335348176893096    1    1    6    6
 0.03725927557182734    2    1    2    1
 2.329643714245509e-15    2    1    4    2
 0.0324436802708577    2    1    4    3
 0.01003362027617807    2    1    5    3
 0.01624370721943252    2    1    6    1
 0.5179814644258285    2    2    1    1
 0.5503192447197239    2    2    2    2
 1.559174881218817e-14    2    2    3    2
 0.5553116262816182    2    2    3    3
 8.416227784135977e-15    2    2    4    1
 0.4693285842813477    2    2    4    4
 2.445960101127298e-15    2    2    5    1
 0.4693285842813492    2    2    5    5
 0.07070753168749241    2    2    6    2
 -3.702767259472495e-15    2    2    6    3
 0.3599037805094897    2    2    6    6
 0.02627004480383534    3    1    3    1
 0.03462441511740158    3    1    4    2
 -2.457612739885682e-15    3    1    4    3
 0.01070804023071402    3    1    5    2
 0.006515902672494223    3    1    6    4
 0.002015125677066481    3    1    6    5
 1.554583285018341e-14    3    2    2    2
 0.2158582170774139    3    2    3    2
 -1.549238168307987e-14    3    2    3    3
 0.1179569557102545    3    2    4    1
 -1.019260908838008e-15    3    2    4    2
 0.03647968703457333    3    2    5    1
 -3.912153804033758e-15    3    2    6    2
 0.01438983836724563    3    2    6    3
 0.5369641961570837    3    3    1    1
 0.5553116262816182    3    3    2    2
 -1.546230184905698e-14    3    3    3    2
 0.5753253927406147    3    3    3    3
 -8.675785784229006e-15    3    3    4    1
 0.4736674990040518    3    3    4    4
 -2.865546341879188e-15    3    3    5    1
 0.4736674990040534    3    3    5    5
 0.07296957282877505    3    3    6    2
 -5.560656102243655e-15    3    3    6    3
 0.3615405714189228    3    3    6    6
 8.513378911158391e-15    4    1    2    2
 0.1179569557102545    4    1    3    2
 -8.686469131690715e-15    4    1    3    3
 0.1021214934504902    4    1    4    1
 0.0279255952646937    4    1    5    1
 -1.605585708232178e-15    4    1    6    2
 0.01298438390987667    4    1    6    3
 4.224857895901779e-15    4    1    6    6
 2.325857605470216e-15    4    2    2    1
 0.03462441511740158    4    2    3    1
 -1.019260908838008e-15    4    2    3    2
 0.06810671022945533    4    2    4    2
 -1.001286313470805e-15    4    2    4    3
 1.075959694875773e-15    4    2    6    1
 0.01333104811556484    4    2    6    4
 0.03244368027085769    4    3    2    1
 -2.458414873583725e-15    4    3    3    1
 -1.018890460213438e-15    4    3    4    2
 0.03843294331095828    4    3    4    3
 0.01070048546349029    4    3    6    1
 0.5047700258395271    4    4    1    1
 0.4693285842813477    4    4    2    2
 0.4736674990040519    4    4    3    3
 0.4528276457103509    4    4    4    4
 0.4180176695963254    4    4    5    5
 0.05888678383909899    4    4    6    2
 -2.544323980364477e-15    4    4    6    3
 0.326578778326705    4    4    6    6
 2.435235426897467e-15    5    1    2    2
 0.03647968703457333    5    1    3    2
 -2.872067024970301e-15    5    1    3    3
 0.02792559526469369    5    1    4    1
 0.02046051223320113    5    1    5    1
 0.004015585672900395    5    1    6    3
 -1.697752123272942e-15    5    1    6    6
 0.01070804023071403    5    2    3    1
 0.06810671022945566    5    2    5    2
 -1.041133739057389e-15    5    2    5    3
 0.01333104811556531    5    2    6    5
 0.01003362027617807    5    3    2    1
 -1.030641280939903e-15    5    3    5    2
 0.0384329433109584    5    3    5    3
 0.003309261064561285    5    3    6    1
 0.00973386388262194    5    4    1    1
 0.01740498805701359    5    4    5    4
 -1.331015420735075e-15    5    4    6    6
 0.4763059280054033    5    5    1    1
 0.469328584281349    5    5    2    2
 0.4736674990040534    5    5    3    3
 0.4180176695963252    5    5    4    4
 0.4528276457103534    5    5    5    5
 0.05888678383909984    5    5    6    2
 -3.374118838799395e-15    5    5    6    3
 0.3265787783267113    5    5    6    6
 0.01624370721943248    6    1    2    1
 1.030326641580258e-15    6    1    4    2
 0.01070048546349027    6    1    4    3
 0.003309261064561296    6    1    5    3
 0.009253872404192639    6    1    6    1
 0.08921576154351021    6    2    1    1
 0.07070753168749309    6    2    2    2
 -4.199345406998012e-15    6    2    3    2
 0.07296957282877559    6    2    3    3
 -1.725670387836553e-15    6    2    4    1
 0.05888678383909832    6    2    4    4
 0.05888678383909879    6    2    5    5
 0.03695042910769698    6    2    6    2
 -0.001546289937048522    6    2    6    6
 -2.338569875942609e-15    6    3    1    1
 -4.089475916376709e-15    6    3    2    2
 0.01438983836724546    6    3    3    2
 -6.291860682092719e-15    6    3    3    3
 0.01298438390987655    6    3    4    1
 -3.188329422254121e-15    6    3    4    4
 0.004015585672900433    6    3    5    1
 -3.245378414740678e-15    6    3    5    5
 0.02277657181402095    6    3    6    3
 2.37943887683445e-14    6    3    6    6
 0.006515902672494151    6    4    3    1
 0.01333104811556503    6    4    4    2
 0.01371619099703466    6    4    6    4
 0.002015125677066495    6    5    3    1
 0.01333104811556528    6    5    5    2
 0.01371619099703462    6    5    6    5
 0.3335348176893012    6    6    1    1
 0.3599037805094991    6    6    2    2
 0.3615405714189357    6    6    3    3
 5.445622251742943e-15    6    6    4    1
 0.3265787783267029    6    6    4    4
 1.574586815100698e-15    6    6    5    1
 0.3265787783267033    6    6    5    5
 -0.001546289937004675    6    6    6    2
 2.717878005986663e-14    6    6    6    3
 0.3505220485219519    6    6    6    6
 -3.400912303076193    1    1  0  0
 -3.148157571420172    2    2  0  0
 -3.156849669729935    3    3  0  0
 -2.394108284132299    4    4  0  0
 0.008457867499449368    5    4  0  0
 -2.418841069681346    5    5  0  0
 -1.586436910990367e-15    6    1  0  0
 -0.3644451081408733    6    2  0  0
 1.163266266038088e-14    6    3  0  0
 -1.414102719166879    6    6  0  0
 -97.02282430732797  0  0  0  0
