 &FCI NORB=   6,NELEC= 6,MS2=0,
  ORBSYM=1,1,1,1,1,1,
  ISYM=1,
 &END
 0.6887302459985595    1    1    1    1
 -6.60062802650904e-15    1    1    2    1
 0.534314378157803    1    1    2    2
 1.183047838954867e-15    1    1    3    1
 0.5603167518814876    1    1    3    3
 -1.115566184621131e-15    1    1    4    2
 4.872111615153548e-15    1    1    4    3
 0.4949339375322794    1    1    4    4
 1.872231109257847e-15    1    1    5    3
 0.01093543662428444    1    1    5    4
 0.4707206718816972    1    1    5    5
 1.007760372109698e-14    1    1    6    1
 0.09589673027431368    1    1    6    2
 -2.236623267226137e-14    1    1    6    3
 0.3361834901275786    1    1    6    6
 -6.600628026509042e-15    2    1    1    1
 0.03540442454187144    2    1    2    1
 -3.792262496862745e-15    2    1    2    2
 -2.925632138094074e-15    2    1    3    2
 -2.2440846667167e-15    2    1    4    1
 2.109013547152242e-15    2    1    4    2
 0.03052687733803751    2    1    4    3
 -2.861828412958109e-15    2    1    4    4
 0.01174576053477187    2    1    5    3
 0.01545587424543518    2    1    6    1
 -2.756451264866824e-15    2    1    6    2
 2.042259449848966e-15    2    1    6    6
 0.5343143781578029    2    2    1    1
 -3.792262496862754e-15    2    2    2    1
 0.5573240257942778    2    2    2    2
 1.437337662085759e-14    2    2    3    2
 0.5641670564199639    2    2    3    3
 6.931955010003322e-15    2    2    4    1
 -4.825059981441901e-15    2    2    4    3
 0.4586061999192319    2    2    4    4
 2.730454751187494e-15    2    2    5    1
 -1.853180374562901e-15    2    2    5    3
 0.4586061999192328    2    2    5    5
 3.636431363706805e-15    2    2    6    1
 0.07663191663527133    2    2    6    2
 -1.274154393104965e-14    2    2    6    3
 0.3619217611733375    2    2    6    6
 1.183047838954877e-15    3    1    1    1
 0.02744003453257215    3    1    3    1
 1.48117369653344e-14    3    1    3    2
 1.108579487098966e-14    3    1    4    1
 0.0338586419498602    3    1    4    2
 -2.15913806700498e-15    3    1    4    3
 4.266803393903947e-15    3    1    5    1
 0.01302771639469646    3    1    5    2
 -2.699899308164716e-15    3    1    6    1
 1.968018654345164e-15    3    1    6    3
 0.005918888150122628    3    1    6    4
 0.00227739778535464    3    1    6    5
 -2.925632138094072e-15    3    2    2    1
 1.444097662631208e-14    3    2    2    2
 1.48117369653344e-14    3    2    3    1
 0.2143445386927305    3    2    3    2
 -1.362354239836661e-14    3    2    3    3
 0.1058281696102323    3    2    4    1
 -1.107447344779875e-14    3    2    4    2
 2.282452203719651e-15    3    2    4    3
 0.04071927581423966    3    2    5    1
 -4.244691066300695e-15    3    2    5    2
 0.02483309770054012    3    2    6    3
 -3.791894099061666e-14    3    2    6    6
 0.5603167518814876    3    3    1    1
 0.5641670564199639    3    3    2    2
 -1.369309396773156e-14    3    3    3    2
 0.5866413258983121    3    3    3    3
 -7.233796894823286e-15    3    3    4    1
 1.163017901705496e-15    3    3    4    2
 0.4643684801440954    3    3    4    4
 -2.724383219021575e-15    3    3    5    1
 0.4643684801440963    3    3    5    5
 6.431378236385851e-15    3    3    6    1
 0.08098942520704949    3    3    6    2
 -1.938553484404082e-14    3    3    6    3
 0.3622784421549818    3    3    6    6
 -2.244084666716698e-15    4    1    2    1
 6.936235282828635e-15    4    1    2    2
 1.108579487098966e-14    4    1    3    1
 0.1058281696102323    4    1    3    2
 -7.198142932545112e-15    4    1    3    3
 0.08265421356015813    4    1    4    1
 -1.37546557518149e-15    4    1    4    2
 0.0278233069484273    4    1    5    1
 -2.196856912610703e-15    4    1    5    2
 -1.561527244912621e-15    4    1    6    2
 0.01647869880303824    4    1    6    3
 -3.092025728312739e-14    4    1    6    6
 -1.115566184621128e-15    4    2    1    1
 2.121566811119633e-15    4    2    2    1
 0.03385864194986021    4    2    3    1
 -1.107447344779875e-14    4    2    3    2
 1.163017901705491e-15    4    2    3    3
 -1.37546557518149e-15    4    2    4    1
 0.06498106717563033    4    2    4    2
 -2.204791435467288e-15    4    2    5    1
 -2.237271511714572e-15    4    2    6    1
 -1.310112371827252e-15    4    2    6    3
 0.008990939262950696    4    2    6    4
 4.872111615153549e-15    4    3    1    1
 0.03052687733803751    4    3    2    1
 -4.825059981441902e-15    4    3    2    2
 -2.158863365853136e-15    4    3    3    1
 2.282452203719653e-15    4    3    3    2
 0.03796611607752182    4    3    4    3
 0.01045811763794371    4    3    6    1
 0.4949339375322794    4    4    1    1
 -2.861828412958103e-15    4    4    2    1
 0.4586061999192319    4    4    2    2
 0.4643684801440953    4    4    3    3
 0.4320433939589655    4    4    4    4
 0.3981666684549556    4    4    5    5
 4.395547460183163e-15    4    4    6    1
 0.05516855593919102    4    4    6    2
 -1.196192066251805e-14    4    4    6    3
 0.3235961887964435    4    4    6    6
 2.707289802271781e-15    5    1    2    2
 4.266803393903943e-15    5    1    3    1
 0.04071927581423967    5    1    3    2
 -2.706657781461947e-15    5    1    3    3
 0.02782330694842731    5    1    4    1
 -2.204791435467289e-15    5    1    4    2
 0.0210477916525151    5    1    5    1
 3.515089136205838e-15    5    1    5    2
 0.006340473279392437    5    1    6    3
 -5.302626755733112e-15    5    1    6    6
 0.01302771639469645    5    2    3    1
 -4.244691066300695e-15    5    2    3    2
 -2.196856912610704e-15    5    2    4    1
 3.515089136205837e-15    5    2    5    1
 0.0649810671756306    5    2    5    2
 -1.051008276960388e-15    5    2    5    3
 0.00899093926295085    5    2    6    5
 1.872231109257848e-15    5    3    1    1
 0.01174576053477186    5    3    2    1
 -1.853180374562902e-15    5    3    2    2
 -1.050539592418816e-15    5    3    5    2
 0.03796611607752193    5    3    5    3
 0.004023947292725554    5    3    6    1
 0.01093543662428441    5    4    1    1
 0.01693836275200542    5    4    5    4
 1.789438689785016e-14    5    4    6    6
 0.4707206718816972    5    5    1    1
 0.4586061999192328    5    5    2    2
 0.4643684801440963    5    5    3    3
 0.3981666684549558    5    5    4    4
 0.432043393958967    5    5    5    5
 4.394828935615535e-15    5    5    6    1
 0.05516855593919053    5    5    6    2
 -1.173093257237318e-14    5    5    6    3
 0.323596188796431    5    5    6    6
 1.007760372109701e-14    6    1    1    1
 0.01545587424543513    6    1    2    1
 3.636431363706826e-15    6    1    2    2
 -2.708208277860807e-15    6    1    3    1
 6.431378236385803e-15    6    1    3    3
 -2.383756881172707e-15    6    1    4    2
 0.01045811763794349    6    1    4    3
 4.395547460183099e-15    6    1    4    4
 0.004023947292725468    6    1    5    3
 4.394828935615528e-15    6    1    5    5
 0.0082741124729901    6    1    6    1
 2.43297681634236e-15    6    1    6    2
 -8.248058281341498e-15    6    1    6    4
 -3.19273528563596e-15    6    1    6    5
 0.09589673027431429    6    2    1    1
 -2.756451264866799e-15    6    2    2    1
 0.0766319166352714    6    2    2    2
 0.08098942520704883    6    2    3    3
 -1.450066195590738e-15    6    2    4    1
 0.05516855593919005    6    2    4    4
 0.05516855593919025    6    2    5    5
 2.432976816342252e-15    6    2    6    1
 0.03899308186002623    6    2    6    2
 -9.207912210484892e-15    6    2    6    3
 -2.378011762052198e-06    6    2    6    6
 -2.190952362026918e-14    6    3    1    1
 -1.318464380641731e-14    6    3    2    2
 1.96801865434516e-15    6    3    3    1
 0.02483309770054026    6    3    3    2
 -1.939529266359319e-14    6    3    3    3
 0.01647869880303777    6    3    4    1
 -1.310112371827202e-15    6    3    4    2
 -1.254469692841399e-14    6    3    4    4
 0.006340473279392313    6    3    5    1
 -1.259461754307936e-14    6    3    5    5
 -1.614457672367495e-14    6    3    6    2
 0.02375764752673172    6    3    6    3
 -1.264096249550817e-13    6    3    6    6
 0.005918888150122623    6    4    3    1
 0.008990939262950725    6    4    4    2
 -4.653165331346132e-15    6    4    6    1
 0.01337340026453915    6    4    6    4
 0.002277397785354626    6    5    3    1
 0.008990939262950812    6    5    5    2
 -1.788933584601082e-15    6    5    6    1
 0.01337340026453916    6    5    6    5
 0.3361834901275905    6    6    1    1
 2.042259449849981e-15    6    6    2    1
 0.3619217611733295    6    6    2    2
 -4.366233936903275e-14    6    6    3    2
 0.3622784421549777    6    6    3    3
 -3.097131925922092e-14    6    6    4    1
 0.3235961887964302    6    6    4    4
 -1.192405549299558e-14    6    6    5    1
 0.3235961887964308    6    6    5    5
 -2.378011737164121e-06    6    6    6    2
 1.028213972298353e-14    6    6    6    3
 0.3517639024317126    6    6    6    6
 -3.596574932511078    1    1  0  0
 3.387048350347193e-14    2    1  0  0
 -3.168928116119227    2    2  0  0
 -5.935192421747013e-15    3    1  0  0
 -3.236712998685941    3    3  0  0
 1.672273430841642e-15    4    1  0  0
 -2.291568641010632    4    4  0  0
 0.005952433699860371    5    4  0  0
 -2.304748531617112    5    5  0  0
 -3.093719431238569e-14    6    1  0  0
 -0.3901163360606563    6    2  0  0
 1.004943823709697e-13    6    3  0  0
 -1.419465834083788    6    6  0  0
 -96.31643688783372  0  0  0  0
