 &FCI NORB=   6,NELEC= 6,MS2=0,
  ORBSYM=1,1,1,1,1,1,
  ISYM=1,
 &END
 0.4884939924570659    1    1    1    1
 0.4336825096755922    1    1    2    2
 0.4336825096755923    1    1    3    3
 -1.374324810990988e-12    1    1    4    2
 -8.840848517675803e-13    1    1    4    3
 0.4386013470573237    1    1    4    4
 8.892783428041118e-13    1    1    5    2
 -1.377649784615326e-12    1    1    5    3
 0.4386013470573235    1    1    5    5
 1.862870751753731e-12    1    1    6    1
 -2.740907768102302e-15    1    1    6    2
 4.445743995890329e-15    1    1    6    3
 0.4894109059570969    1    1    6    6
 0.01941275081370193    2    1    2    1
 -4.739877096248023e-14    2    1    4    1
 7.777855805891714e-15    2    1    4    2
 3.456462426615469e-15    2    1    4    3
 3.068833570879542e-14    2    1    5    1
 -4.885693160300778e-15    2    1    5    2
 7.831759818640465e-15    2    1    5    3
 -8.561827148560008e-15    2    1    6    1
 3.635237917741648e-13    2    1    6    2
 -3.662777139966725e-15    2    1    6    3
 -0.01268739259079575    2    1    6    4
 0.008176041927609909    2    1    6    5
 0.4336825096755922    2    2    1    1
 0.4527134494548157    2    2    2    2
 0.4194483297883335    2    2    3    3
 1.158132475122399e-15    2    2    4    1
 -3.910440316520802e-12    2    2    4    2
 -2.124153212671549e-12    2    2    4    3
 0.446273634430711    2    2    4    4
 2.523000864761323e-12    2    2    5    2
 -3.317673399731453e-12    2    2    5    3
 -0.01544832247854987    2    2    5    4
 0.4322565326469368    2    2    5    5
 3.840145389651245e-12    2    2    6    1
 -1.581722462397225e-15    2    2    6    2
 2.114978586459732e-15    2    2    6    3
 0.4467667065603647    2    2    6    6
 0.01941275081370194    3    1    3    1
 -3.046447507951789e-14    3    1    4    1
 -1.130579554447045e-14    3    1    4    2
 -8.270976305465216e-15    3    1    4    3
 -4.753594315305175e-14    3    1    5    1
 8.2420645212999e-15    3    1    5    2
 -1.268924430367722e-14    3    1    5    3
 1.4124748222559e-14    3    1    6    1
 -3.61798519068297e-15    3    1    6    2
 3.634842628640988e-13    3    1    6    3
 -0.008176041927609888    3    1    6    4
 -0.01268739259079576    3    1    6    5
 0.01663255983324118    3    2    3    2
 -1.506228404932617e-13    3    2    4    2
 -2.725530301743692e-13    3    2    4    3
 0.01544832247854996    3    2    4    4
 1.282279041266939e-15    3    2    5    1
 -3.278050197110742e-13    3    2    5    2
 2.362785870278251e-13    3    2    5    3
 0.007008550891886969    3    2    5    4
 -0.01544832247854986    3    2    5    5
 -4.292842291610667e-14    3    2    6    1
 0.4336825096755924    3    3    1    1
 0.4194483297883336    3    3    2    2
 0.452713449454816    3    3    3    3
 -1.356347361518993e-15    3    3    4    1
 -3.304776957191273e-12    3    3    4    2
 -2.51841287353307e-12    3    3    4    3
 0.432256532646937    3    3    4    4
 -2.128734133708882e-15    3    3    5    1
 2.143415199289903e-12    3    3    5    2
 -3.912696867349429e-12    3    3    5    3
 0.01544832247854993    3    3    5    4
 0.4462736344307108    3    3    5    5
 3.839765245738786e-12    3    3    6    1
 -1.345102657136732e-15    3    3    6    2
 2.600823930091214e-15    3    3    6    3
 0.4467667065603647    3    3    6    6
 -4.739619382214077e-14    4    1    2    1
 1.158132475122399e-15    4    1    2    2
 -3.046593334395187e-14    4    1    3    1
 -1.356347361518992e-15    4    1    3    3
 0.01927252040740608    4    1    4    1
 -0.009501283434625894    4    1    6    2
 -0.006122841330216489    4    1    6    3
 -1.51560283090328e-13    4    1    6    4
 1.471602855307626e-15    4    1    6    5
 -1.374337463521222e-12    4    2    1    1
 7.777855805891712e-15    4    2    2    1
 -3.910419297398215e-12    4    2    2    2
 -1.130579554447045e-14    4    2    3    1
 -1.506267034928968e-13    4    2    3    2
 -3.304705176231191e-12    4    2    3    3
 0.1452683189432944    4    2    4    2
 0.08339307034922777    4    2    4    3
 2.74705086804634e-12    4    2    4    4
 1.113330214462931e-15    4    2    5    1
 -0.0833930703492277    4    2    5    2
 0.1135465531525971    4    2    5    3
 -1.63846292490586e-13    4    2    5    4
 2.354584558469756e-12    4    2    5    5
 -0.1298498943451123    4    2    6    1
 -1.242694868411023e-14    4    2    6    5
 1.070828558860031e-12    4    2    6    6
 -8.841010350047027e-13    4    3    1    1
 3.456462426615467e-15    4    3    2    1
 -2.124127357837867e-12    4    3    2    2
 -8.270976305465216e-15    4    3    3    1
 -2.725575705886038e-13    4    3    3    2
 -2.518369268276945e-12    4    3    3    3
 0.08339307034922779    4    3    4    2
 0.06960125821423395    4    3    4    3
 1.772397148413151e-12    4    3    4    4
 -0.03787949242353664    4    3    5    2
 0.08339307034922777    4    3    5    3
 2.186697037906502e-13    4    3    5    4
 1.514786275472017e-12    4    3    5    5
 -0.08367820045480023    4    3    6    1
 -8.057130375037136e-15    4    3    6    5
 6.915856964206487e-13    4    3    6    6
 0.4386013470573237    4    4    1    1
 0.4462736344307109    4    4    2    2
 0.01544832247854991    4    4    3    2
 0.4322565326469371    4    4    3    3
 2.747108885991579e-12    4    4    4    2
 1.772452278399556e-12    4    4    4    3
 0.4650887902464803    4    4    4    4
 -1.473419368284989e-12    4    4    5    2
 2.282326942455032e-12    4    4    5    3
 0.4289192793795301    4    4    5    5
 -2.390666873890961e-12    4    4    6    1
 -1.466995511285758e-15    4    4    6    2
 2.166824285665744e-15    4    4    6    3
 0.449614568686123    4    4    6    6
 3.06875347419285e-14    5    1    2    1
 -4.753604695718524e-14    5    1    3    1
 1.282279041266939e-15    5    1    3    2
 -2.128734133708887e-15    5    1    3    3
 1.113330214462931e-15    5    1    4    2
 0.01927252040740603    5    1    5    1
 1.209047711967223e-15    5    1    5    3
 -1.302561973716502e-15    5    1    6    1
 0.006122841330216494    5    1    6    2
 -0.009501283434625902    5    1    6    3
 1.459006628349007e-15    5    1    6    4
 -1.579232079308712e-13    5    1    6    5
 2.161275701080757e-15    5    1    6    6
 8.892560067196606e-13    5    2    1    1
 -4.885693160300776e-15    5    2    2    1
 2.522988775907099e-12    5    2    2    2
 8.242064521299901e-15    5    2    3    1
 -3.278102141406232e-13    5    2    3    2
 2.143397879160198e-12    5    2    3    3
 -0.0833930703492277    5    2    4    2
 -0.03787949242353664    5    2    4    3
 -1.473424489022672e-12    5    2    4    4
 0.06960125821423381    5    2    5    2
 -0.08339307034922765    5    2    5    3
 2.467128352334107e-13    5    2    5    4
 -1.815657026853559e-12    5    2    5    5
 0.08367820045480018    5    2    6    1
 -1.043207540564037e-15    5    2    6    4
 8.674583598757395e-15    5    2    6    5
 -6.864371621622293e-13    5    2    6    6
 -1.37767534682354e-12    5    3    1    1
 7.831759818640466e-15    5    3    2    1
 -3.317669476274841e-12    5    3    2    2
 -1.268924430367722e-14    5    3    3    1
 2.362676840197281e-13    5    3    3    2
 -3.912710142049778e-12    5    3    3    3
 0.1135465531525971    5    3    4    2
 0.08339307034922776    5    3    4    3
 2.2823235018072e-12    5    3    4    4
 1.209047711967223e-15    5    3    5    1
 -0.08339307034922766    5    3    5    2
 0.1452683189432943    5    3    5    3
 1.360899409927775e-13    5    3    5    4
 2.820609306015964e-12    5    3    5    5
 -0.1298498943451123    5    3    6    1
 -1.203307862449753e-15    5    3    6    4
 -1.339538872843236e-14    5    3    6    5
 1.067509396195022e-12    5    3    6    6
 -0.01544832247854987    5    4    2    2
 0.007008550891886968    5    4    3    2
 0.01544832247854993    5    4    3    3
 -1.638429805917623e-13    5    4    4    2
 2.1866450470242e-13    5    4    4    3
 2.467162758812425e-13    5    4    5    2
 1.360873566952554e-13    5    4    5    3
 0.01808475543347498    5    4    5    4
 1.629705039234198e-14    5    4    6    1
 -1.127203671139021e-15    5    4    6    2
 0.4386013470573234    5    5    1    1
 0.4322565326469366    5    5    2    2
 -0.0154483224785499    5    5    3    2
 0.4462736344307108    5    5    3    3
 2.35459125003004e-12    5    5    4    2
 1.514779509372835e-12    5    5    4    3
 0.4289192793795301    5    5    4    4
 -1.815660143934805e-12    5    5    5    2
 2.82059174194077e-12    5    5    5    3
 0.4650887902464799    5    5    5    5
 -2.461873370735485e-12    5    5    6    1
 0.4496145686861229    5    5    6    6
 1.862861481825157e-12    6    1    1    1
 -8.561827148560006e-15    6    1    2    1
 3.840171792211279e-12    6    1    2    2
 1.4124748222559e-14    6    1    3    1
 -4.29117868626025e-14    6    1    3    2
 3.83971988319326e-12    6    1    3    3
 -0.1298498943451123    6    1    4    2
 -0.08367820045480025    6    1    4    3
 -2.390637986050527e-12    6    1    4    4
 -1.302561973716504e-15    6    1    5    1
 0.08367820045480016    6    1    5    2
 -0.1298498943451123    6    1    5    3
 1.628916863590305e-14    6    1    5    4
 -2.461850439217789e-12    6    1    5    5
 0.1741150588200684    6    1    6    1
 1.468763533492254e-14    6    1    6    5
 -1.183236505736956e-12    6    1    6    6
 -2.740907768102301e-15    6    2    1    1
 3.635249098274041e-13    6    2    2    1
 -1.581722462397221e-15    6    2    2    2
 -3.618772055139606e-15    6    2    3    1
 -1.34510265713673e-15    6    2    3    3
 -0.009501283434625894    6    2    4    1
 -1.466995511285756e-15    6    2    4    4
 0.006122841330216492    6    2    5    1
 -1.127203671139022e-15    6    2    5    4
 0.02029733998304918    6    2    6    2
 9.977326446584597e-14    6    2    6    4
 -6.365850365288098e-14    6    2    6    5
 -1.599899165299853e-15    6    2    6    6
 4.445743995890327e-15    6    3    1    1
 -3.662306308504522e-15    6    3    2    1
 2.114978586459729e-15    6    3    2    2
 3.634856101002525e-13    6    3    3    1
 2.60082393009121e-15    6    3    3    3
 -0.006122841330216488    6    3    4    1
 2.166824285665743e-15    6    3    4    4
 -0.009501283434625899    6    3    5    1
 0.02029733998304918    6    3    6    3
 6.456454769150459e-14    6    3    6    4
 9.920733126059927e-14    6    3    6    5
 2.598060892542339e-15    6    3    6    6
 -0.01268739259079575    6    4    2    1
 -0.008176041927609888    6    4    3    1
 -1.515582406662444e-13    6    4    4    1
 1.458400032281549e-15    6    4    5    1
 -1.043207540564038e-15    6    4    5    2
 -1.203307862449753e-15    6    4    5    3
 9.977441643065424e-14    6    4    6    2
 6.456657379431442e-14    6    4    6    3
 0.02181836667610141    6    4    6    4
 0.008176041927609911    6    5    2    1
 -0.01268739259079576    6    5    3    1
 1.471478839045884e-15    6    5    4    1
 -1.242694868411023e-14    6    5    4    2
 -8.057130375037136e-15    6    5    4    3
 -1.579204932061648e-13    6    5    5    1
 8.674583598757395e-15    6    5    5    2
 -1.339538872843236e-14    6    5    5    3
 1.468763533492255e-14    6    5    6    1
 -6.365697899357592e-14    6    5    6    2
 9.920837480519029e-14    6    5    6    3
 0.0218183666761014    6    5    6    5
 0.4894109059570967    6    6    1    1
 0.4467667065603645    6    6    2    2
 0.4467667065603647    6    6    3    3
 1.070881881540661e-12    6    6    4    2
 6.916535094953494e-13    6    6    4    3
 0.449614568686123    6    6    4    4
 2.161275701080763e-15    6    6    5    1
 -6.864610469685742e-13    6    6    5    2
 1.067550393280047e-12    6    6    5    3
 0.4496145686861228    6    6    5    5
 -1.183222790579475e-12    6    6    6    1
 -1.599899165299852e-15    6    6    6    2
 2.59806089254234e-15    6    6    6    3
 0.5142309706959719    6    6    6    6
 -2.679637515664765    1    1  0  0
 -2.535752631725838    2    2  0  0
 1.050710208787413e-15    3    1  0  0
 -2.535752631725839    3    3  0  0
 -1.220004295070937e-12    4    2  0  0
 -7.873990630520578e-13    4    3  0  0
 -2.469802508330996    4    4  0  0
 -6.441933261861781e-15    5    1  0  0
 7.825583714024531e-13    5    2  0  0
 -1.217014065479222e-12    5    3  0  0
 -2.469802508330996    5    5  0  0
 9.598710715152947e-13    6    1  0  0
 1.901989552832574e-15    6    2  0  0
 -3.351524846180132e-15    6    3  0  0
 -2.477755629249131    6    6  0  0
 -99.31575324588582  0  0  0  0
