 &FCI NORB=   6,NELEC= 6,MS2=0,
  ORBSYM=1,1,1,1,1,1,
  ISYM=1,
 &END
 0.6062855671810748    1    1    1    1
 0.5559565355555454    1    1    2    2
 0.5186138950207191    1    1    3    3
 0.5068372653838273    1    1    4    4
 -0.01003983312634275    1    1    5    4
 0.4776594581801705    1    1    5    5
 -4.409147595618748e-15    1    1    6    3
 0.3364644971939736    1    1    6    6
 0.02516451581276505    2    1    2    1
 0.01003983312634322    2    1    4    4
 0.01458890360182876    2    1    5    4
 -0.01003983312634315    2    1    5    5
 1.809833380533819e-15    2    1    6    6
 0.5559565355555454    2    2    1    1
 0.6062855671810761    2    2    2    2
 0.5186138950207192    2    2    3    3
 0.4776594581801702    2    2    4    4
 0.01003983312634363    2    2    5    4
 0.5068372653838282    2    2    5    5
 -4.56110749865732e-15    2    2    6    3
 0.3364644971939808    2    2    6    6
 0.02488705047608065    3    1    3    1
 0.006243200186549547    3    1    6    4
 -0.001940660977693509    3    1    6    5
 0.02488705047608051    3    2    3    2
 0.001940660977693512    3    2    6    4
 0.006243200186549535    3    2    6    5
 0.5186138950207191    3    3    1    1
 0.5186138950207193    3    3    2    2
 0.5682166087947496    3    3    3    3
 0.479028829429928    3    3    4    4
 0.4790288294299285    3    3    5    5
 -1.875236077530928e-15    3    3    6    3
 0.3639131408925203    3    3    6    6
 0.1154052024798598    4    1    4    1
 0.03186067653782056    4    1    4    2
 -0.03186067653782047    4    1    5    1
 0.08958947097508457    4    1    5    2
 0.005011772238049    4    1    6    3
 -3.014765437832644e-15    4    1    6    6
 0.03186067653782055    4    2    4    1
 0.02281156414941683    4    2    4    2
 0.003004167355358462    4    2    5    1
 0.03186067653782057    4    2    5    2
 0.001557879055748391    4    2    6    3
 0.03754828551762365    4    3    4    3
 0.01034860817323901    4    3    6    1
 0.003216802193610972    4    3    6    2
 0.5068372653838273    4    4    1    1
 0.01003983312634325    4    4    2    1
 0.4776594581801702    4    4    2    2
 0.4790288294299281    4    4    3    3
 0.4687845295925853    4    4    4    4
 0.4330261165153644    4    4    5    5
 -2.622791853103107e-15    4    4    6    3
 0.3318770526796418    4    4    6    6
 -0.03186067653782049    5    1    4    1
 0.003004167355358469    5    1    4    2
 0.02281156414941685    5    1    5    1
 -0.03186067653782051    5    1    5    2
 -0.0015578790557483    5    1    6    3
 0.08958947097508457    5    2    4    1
 0.03186067653782058    5    2    4    2
 -0.03186067653782051    5    2    5    1
 0.1154052024798599    5    2    5    2
 0.005011772238049019    5    2    6    3
 -2.07849110785251e-15    5    2    6    6
 0.03754828551762367    5    3    5    3
 -0.003216802193610968    5    3    6    1
 0.01034860817323897    5    3    6    2
 -0.01003983312634273    5    4    1    1
 0.01458890360182876    5    4    2    1
 0.01003983312634363    5    4    2    2
 0.01787920653861064    5    4    5    4
 0.4776594581801705    5    5    1    1
 -0.01003983312634316    5    5    2    1
 0.5068372653838282    5    5    2    2
 0.4790288294299285    5    5    3    3
 0.4330261165153644    5    5    4    4
 0.4687845295925862    5    5    5    5
 -2.338950969059555e-15    5    5    6    3
 0.3318770526796415    5    5    6    6
 0.01034860817323898    6    1    4    3
 -0.003216802193610951    6    1    5    3
 0.01109239154687189    6    1    6    1
 0.003216802193610952    6    2    4    3
 0.01034860817323898    6    2    5    3
 0.01109239154687186    6    2    6    2
 -4.952164573595111e-15    6    3    1    1
 -4.936633377474256e-15    6    3    2    2
 -1.842547382030491e-15    6    3    3    3
 0.005011772238049064    6    3    4    1
 0.001557879055748321    6    3    4    2
 -2.297776769202842e-15    6    3    4    4
 -0.001557879055748291    6    3    5    1
 0.005011772238049085    6    3    5    2
 -2.295642246175761e-15    6    3    5    5
 0.02190840992177807    6    3    6    3
 -4.67133927026242e-15    6    3    6    6
 0.006243200186549539    6    4    3    1
 0.001940660977693497    6    4    3    2
 0.01499043913554012    6    4    6    4
 -0.001940660977693492    6    5    3    1
 0.006243200186549528    6    5    3    2
 0.01499043913554016    6    5    6    5
 0.3364644971939801    6    6    1    1
 0.3364644971939802    6    6    2    2
 0.3639131408925155    6    6    3    3
 -1.518750403217695e-15    6    6    4    1
 0.3318770526796463    6    6    4    4
 -1.495331636292008e-15    6    6    5    2
 0.3318770526796466    6    6    5    5
 -4.336375009073024e-15    6    6    6    3
 0.3486740352927142    6    6    6    6
 -3.359097072107961    1    1  0  0
 -3.359097072107964    2    2  0  0
 -3.226476711527514    3    3  0  0
 -1.793704074160019e-15    4    1  0  0
 -2.520620372101096    4    4  0  0
 -2.390448949896041e-15    5    2  0  0
 -1.970645868709653e-15    5    4  0  0
 -2.520620372101099    5    5  0  0
 1.697253448895708e-14    6    3  0  0
 -1.412889397481758    6    6  0  0
 -97.04414448613556  0  0  0  0
