 &FCI NORB=   6,NELEC= 6,MS2=0,
  ORBSYM=1,1,1,1,1,1,
  ISYM=1,
 &END
 0.5308806482829853    1    1    1    1
 0.4634791957009022    1    1    2    2
 0.4634791957009017    1    1    3    3
 5.437273895014805e-15    1    1    4    2
 1.007358259308422e-13    1    1    4    3
 0.4667587719495769    1    1    4    4
 1.016194507014179e-13    1    1    5    2
 -6.186566016419537e-15    1    1    5    3
 0.4667587719495778    1    1    5    5
 -9.176426979395913e-14    1    1    6    1
 0.4922834708544584    1    1    6    6
 0.02046639992417953    2    1    2    1
 1.580566908387784e-15    2    1    4    1
 2.926409195006773e-14    2    1    5    1
 2.243866849055073e-14    2    1    6    2
 -0.0004911738385047449    2    1    6    4
 -0.008521255831648387    2    1    6    5
 0.4634791957009022    2    2    1    1
 0.4930847720569499    2    2    2    2
 0.4562086707751925    2    2    3    3
 -9.611018578215003e-15    2    2    4    2
 -1.383278799664545e-13    2    2    4    3
 0.446782620695208    2    2    4    4
 -1.642497986578673e-13    2    2    5    2
 6.905717317429172e-15    2    2    5    3
 0.00200391194790011    2    2    5    4
 0.4814324956809631    2    2    5    5
 1.442766467789216e-13    2    2    6    1
 0.4653079712907222    2    2    6    6
 0.02046639992417951    3    1    3    1
 2.902832245668569e-14    3    1    4    1
 -1.788951331613504e-15    3    1    5    1
 2.275012589338793e-14    3    1    6    3
 -0.008521255831648374    3    1    6    4
 0.0004911738385047485    3    1    6    5
 0.01843805064087848    3    2    3    2
 -1.338574594523796e-14    3    2    4    2
 -5.285997198766976e-15    3    2    4    3
 0.002003911947900069    3    2    4    4
 -3.709746387441397e-15    3    2    5    2
 -1.38896915853387e-14    3    2    5    3
 0.01732493749287722    3    2    5    4
 -0.002003911947900106    3    2    5    5
 3.050712197107403e-15    3    2    6    1
 0.4634791957009018    3    3    1    1
 0.4562086707751924    3    3    2    2
 0.493084772056949    3    3    3    3
 -9.599146564426286e-15    3    3    4    2
 -1.748806177995221e-13    3    3    4    3
 0.481432495680962    3    3    4    4
 -1.462223354550818e-13    3    3    5    2
 9.991248280105669e-15    3    3    5    3
 -0.002003911947900075    3    3    5    4
 0.4467826206952082    3    3    5    5
 1.504294530226122e-13    3    3    6    1
 0.465307971290722    3    3    6    6
 1.580370729202051e-15    4    1    2    1
 2.902840065915304e-14    4    1    3    1
 0.02609208597809998    4    1    4    1
 -0.0001547944353123621    4    1    6    2
 -0.002685491125968068    4    1    6    3
 1.406175319956272e-14    4    1    6    4
 5.427555353992873e-15    4    2    1    1
 -9.601975654470116e-15    4    2    2    2
 -1.338346700309337e-14    4    2    3    2
 -9.537974692008528e-15    4    2    3    3
 0.01573619613593835    4    2    4    2
 0.009050826991639232    4    2    4    3
 5.069379110418529e-15    4    2    4    4
 0.009050826991639248    4    2    5    2
 0.01469279842016625    4    2    5    3
 9.861347730831223e-15    4    2    5    4
 4.345180763592679e-15    4    2    5    5
 -0.006184826511604086    4    2    6    1
 1.007579361420807e-13    4    3    1    1
 -1.382910713026986e-13    4    3    2    2
 -5.288358726623921e-15    4    3    3    2
 -1.748666451440242e-13    4    3    3    3
 0.00905082699163922    4    3    4    2
 0.1722351002452862    4    3    4    3
 9.493679442845043e-14    4    3    4    4
 0.1418061056891818    4    3    5    2
 -0.009050826991639276    4    3    5    3
 2.836476171129421e-15    4    3    5    4
 6.778117563749353e-14    4    3    5    5
 -0.1072990555445276    4    3    6    1
 1.991707113932237e-14    4    3    6    6
 0.466758771949577    4    4    1    1
 0.446782620695208    4    4    2    2
 0.002003911947900089    4    4    3    2
 0.481432495680962    4    4    3    3
 4.987546833867817e-15    4    4    4    2
 9.493317590369976e-14    4    4    4    3
 0.4836134901310304    4    4    4    4
 7.672204885289524e-14    4    4    5    2
 -3.974685164331859e-15    4    4    5    3
 0.446461811787064    4    4    5    5
 -3.447607880558832e-14    4    4    6    1
 0.4561582791023123    4    4    6    6
 2.926646675501563e-14    5    1    2    1
 -1.788250502908094e-15    5    1    3    1
 0.02609208597810005    5    1    5    1
 -0.002685491125968061    5    1    6    2
 0.000154794435312359    5    1    6    3
 1.444546251280071e-14    5    1    6    5
 1.016138203632011e-13    5    2    1    1
 -1.642551654586211e-13    5    2    2    2
 -3.708106955171986e-15    5    2    3    2
 -1.462445073895091e-13    5    2    3    3
 0.009050826991639241    5    2    4    2
 0.1418061056891818    5    2    4    3
 7.665254471737534e-14    5    2    4    4
 0.1722351002452867    5    2    5    2
 -0.009050826991639265    5    2    5    3
 3.879058532718638e-15    5    2    5    4
 8.586301157922915e-14    5    2    5    5
 -0.1072990555445277    5    2    6    1
 2.031875568378718e-14    5    2    6    6
 -6.19383155002622e-15    5    3    1    1
 6.921936304303197e-15    5    3    2    2
 -1.38877082576927e-14    5    3    3    2
 1.001250033675228e-14    5    3    3    3
 0.01469279842016626    5    3    4    2
 -0.009050826991639251    5    3    4    3
 -3.921299218765262e-15    5    3    4    4
 -0.009050826991639267    5    3    5    2
 0.01573619613593838    5    3    5    3
 8.340245540635477e-15    5    3    5    4
 -5.308484229450683e-15    5    3    5    5
 0.006184826511604111    5    3    6    1
 -1.320167730065544e-15    5    3    6    6
 0.002003911947900043    5    4    2    2
 0.01732493749287722    5    4    3    2
 -0.002003911947900127    5    4    3    3
 9.848784114641074e-15    5    4    4    2
 2.838603917892923e-15    5    4    4    3
 3.891120281887539e-15    5    4    5    2
 8.339767814053226e-15    5    4    5    3
 0.01857583917198358    5    4    5    4
 -2.313477597159485e-15    5    4    6    1
 0.4667587719495777    5    5    1    1
 0.4814324956809632    5    5    2    2
 -0.002003911947900117    5    5    3    2
 0.4467826206952083    5    5    3    3
 4.424954326565089e-15    5    5    4    2
 6.785061878664123e-14    5    5    4    3
 0.446461811787064    5    5    4    4
 8.589006242343267e-14    5    5    5    2
 -5.30825383648903e-15    5    5    5    3
 0.4836134901310321    5    5    5    5
 -2.829749225784641e-14    5    5    6    1
 0.4561582791023133    5    5    6    6
 -9.172708165944288e-14    6    1    1    1
 1.44169181801046e-13    6    1    2    2
 3.059916686351527e-15    6    1    3    2
 1.505515682823436e-13    6    1    3    3
 -0.006184826511604088    6    1    4    2
 -0.1072990555445275    6    1    4    3
 -3.449219805173181e-14    6    1    4    4
 -0.1072990555445277    6    1    5    2
 0.00618482651160409    6    1    5    3
 -2.328961134188956e-15    6    1    5    4
 -2.837826002834165e-14    6    1    5    5
 0.1116722587337871    6    1    6    1
 9.693201102889404e-15    6    1    6    6
 2.243411991960756e-14    6    2    2    1
 -0.0001547944353123629    6    2    4    1
 -0.002685491125968052    6    2    5    1
 0.02458285367242252    6    2    6    2
 1.079906021377031e-15    6    2    6    5
 2.274930088731372e-14    6    3    3    1
 -0.002685491125968064    6    3    4    1
 0.0001547944353123579    6    3    5    1
 0.02458285367242248    6    3    6    3
 -0.0004911738385047512    6    4    2    1
 -0.008521255831648374    6    4    3    1
 1.405432770193041e-14    6    4    4    1
 0.02625232364146813    6    4    6    4
 -0.008521255831648382    6    5    2    1
 0.0004911738385047475    6    5    3    1
 1.4439752223487e-14    6    5    5    1
 1.077642749341967e-15    6    5    6    2
 0.02625232364146815    6    5    6    5
 0.4922834708544584    6    6    1    1
 0.4653079712907223    6    6    2    2
 0.4653079712907219    6    6    3    3
 1.97812144268894e-14    6    6    4    3
 0.4561582791023126    6    6    4    4
 2.026091967810562e-14    6    6    5    2
 -1.336062337153887e-15    6    6    5    3
 0.4561582791023133    6    6    5    5
 9.449038773645668e-15    6    6    6    1
 0.502522622454572    6    6    6    6
 -2.91511733165393    1    1  0  0
 -2.776240364267904    2    2  0  0
 -2.776240364267902    3    3  0  0
 -2.24607658860787e-14    4    2  0  0
 -3.724707174634911e-13    4    3  0  0
 -2.561989225126459    4    4  0  0
 -3.698690659303949e-13    5    2  0  0
 1.978625596699146e-14    5    3  0  0
 -2.561989225126463    5    5  0  0
 1.170660790528188e-13    6    1  0  0
 -2.382186499730996    6    6  0  0
 -98.67329446120536  0  0  0  0
