 &FCI NORB=   6,NELEC= 6,MS2=0,
  ORBSYM=1,1,1,1,1,1,
  ISYM=1,
 &END
 0.5492187814464886    1    1    1    1
 0.4809974844795316    1    1    2    2
 0.4809974844795314    1    1    3    3
 1.912662736525128e-14    1    1    4    2
 3.41892313071579e-15    1    1    4    3
 0.477010633341574    1    1    4    4
 3.590010233534002e-15    1    1    5    2
 -1.907501934184097e-14    1    1    5    3
 0.477010633341574    1    1    5    5
 -1.332788046592981e-14    1    1    6    1
 0.4417696159586063    1    1    6    6
 0.02150804645498657    2    1    2    1
 4.79955153809973e-15    2    1    4    1
 1.949293862175266e-15    2    1    6    2
 -0.001271693939892771    2    1    6    4
 -0.0002358549393085185    2    1    6    5
 0.4809974844795317    2    2    1    1
 0.5267881117656612    2    2    2    2
 0.4862031596337653    2    2    3    3
 -7.506148480551644e-15    2    2    4    2
 -1.252036668786261e-15    2    2    4    3
 0.4947228747088449    2    2    4    4
 -1.270251265284017e-15    2    2    5    2
 6.225705714846264e-15    2    2    5    3
 0.006361976137619831    2    2    5    4
 0.4615999925712846    2    2    5    5
 6.570419846250734e-15    2    2    6    1
 0.4268956010581438    2    2    6    6
 0.02150804645498654    3    1    3    1
 -4.798429508991135e-15    3    1    5    1
 1.958963590301122e-15    3    1    6    3
 -0.0002358549393085212    3    1    6    4
 0.001271693939892797    3    1    6    5
 0.02029247606594782    3    2    3    2
 0.006361976137619968    3    2    4    4
 -0.01656144106878008    3    2    5    4
 -0.006361976137619711    3    2    5    5
 0.4809974844795314    3    3    1    1
 0.4862031596337653    3    3    2    2
 0.5267881117656608    3    3    3    3
 -7.659671508175592e-15    3    3    4    2
 -1.786765180256111e-15    3    3    4    3
 0.4615999925712844    3    3    4    4
 -1.412064909445121e-15    3    3    5    2
 9.104479323229775e-15    3    3    5    3
 -0.006361976137619706    3    3    5    4
 0.4947228747088446    3    3    5    5
 7.421859710978192e-15    3    3    6    1
 0.426895601058144    3    3    6    6
 4.803002302376609e-15    4    1    2    1
 0.03101181670702902    4    1    4    1
 0.00453953212898162    4    1    6    2
 0.000841925121433128    4    1    6    3
 2.222045247454729e-15    4    1    6    4
 1.914084875384589e-14    4    2    1    1
 -7.522899404116545e-15    4    2    2    2
 -7.618200775078021e-15    4    2    3    3
 0.1521256399781968    4    2    4    2
 0.02549752452797367    4    2    4    3
 2.646862763688862e-15    4    2    4    4
 0.02549752452797366    4    2    5    2
 -0.1228319040067306    4    2    5    3
 3.237536107258965e-15    4    2    5    5
 -0.06149282373949021    4    2    6    1
 -2.278094793828097e-15    4    2    6    6
 3.4386316084568e-15    4    3    1    1
 -1.226070026755233e-15    4    3    2    2
 -1.797309046383533e-15    4    3    3    3
 0.02549752452797365    4    3    4    2
 0.01937577083838772    4    3    4    3
 -0.009917965133078457    4    3    5    2
 -0.02549752452797364    4    3    5    3
 -0.01140477732575299    4    3    6    1
 0.4770106333415741    4    4    1    1
 0.4947228747088448    4    4    2    2
 0.006361976137619955    4    4    3    2
 0.4615999925712845    4    4    3    3
 2.636346002615753e-15    4    4    4    2
 0.4869578366913911    4    4    4    4
 -1.982138411737999e-15    4    4    5    3
 0.4497499069359081    4    4    5    5
 0.412405400426622    4    4    6    6
 -4.797282674330787e-15    5    1    3    1
 0.03101181670702898    5    1    5    1
 0.0008419251214331401    5    1    6    2
 -0.004539532128981606    5    1    6    3
 2.255614857220312e-15    5    1    6    5
 3.585765189278066e-15    5    2    1    1
 -1.298698019784605e-15    5    2    2    2
 -1.376177817535851e-15    5    2    3    3
 0.02549752452797366    5    2    4    2
 -0.009917965133078466    5    2    4    3
 0.01937577083838774    5    2    5    2
 -0.02549752452797364    5    2    5    3
 -0.01140477732575293    5    2    6    1
 -1.908866194907924e-14    5    3    1    1
 6.251834987203164e-15    5    3    2    2
 9.048480281020899e-15    5    3    3    3
 -0.1228319040067306    5    3    4    2
 -0.02549752452797364    5    3    4    3
 -1.956293742451376e-15    5    3    4    4
 -0.02549752452797366    5    3    5    2
 0.1521256399781968    5    3    5    3
 -4.148455667526973e-15    5    3    5    5
 0.06149282373949028    5    3    6    1
 1.94439832955248e-15    5    3    6    6
 0.006361976137619897    5    4    2    2
 -0.0165614410687801    5    4    3    2
 -0.006361976137619781    5    4    3    3
 0.01860396487774152    5    4    5    4
 0.477010633341574    5    5    1    1
 0.4615999925712846    5    5    2    2
 -0.006361976137619713    5    5    3    2
 0.4947228747088446    5    5    3    3
 3.259979092229415e-15    5    5    4    2
 0.449749906935908    5    5    4    4
 -4.103054701554143e-15    5    5    5    3
 0.4869578366913911    5    5    5    5
 0.412405400426621    5    5    6    6
 -1.34111471927767e-14    6    1    1    1
 6.46493492420519e-15    6    1    2    2
 7.130038746916423e-15    6    1    3    3
 -0.06149282373949026    6    1    4    2
 -0.01140477732575297    6    1    4    3
 -0.01140477732575298    6    1    5    2
 0.06149282373949025    6    1    5    3
 0.05724014373249455    6    1    6    1
 3.05256444036936e-15    6    1    6    6
 1.950477366218094e-15    6    2    2    1
 0.004539532128981609    6    2    4    1
 0.0008419251214331297    6    2    5    1
 0.02343761198467048    6    2    6    2
 1.952975715381468e-15    6    3    3    1
 0.0008419251214331347    6    3    4    1
 -0.004539532128981596    6    3    5    1
 0.02343761198467048    6    3    6    3
 -0.001271693939892779    6    4    2    1
 -0.0002358549393085164    6    4    3    1
 2.224417068376271e-15    6    4    4    1
 0.02551418405239868    6    4    6    4
 -0.0002358549393085144    6    5    2    1
 0.001271693939892793    6    5    3    1
 2.262336782020492e-15    6    5    5    1
 0.02551418405239868    6    5    6    5
 0.4417696159586055    6    6    1    1
 0.4268956010581438    6    6    2    2
 0.4268956010581436    6    6    3    3
 -2.419071887249657e-15    6    6    4    2
 0.4124054004266216    6    6    4    4
 2.39717100336545e-15    6    6    5    3
 0.4124054004266216    6    6    5    5
 3.528427550136826e-15    6    6    6    1
 0.4109827541829215    6    6    6    6
 -3.033706752483138    1    1  0  0
 -2.954805372214598    2    2  0  0
 -2.954805372214597    3    3  0  0
 -4.53855703019812e-14    4    2  0  0
 -7.802786194943678e-15    4    3  0  0
 -2.582266964765342    4    4  0  0
 -1.642923351507827e-15    5    1  0  0
 -9.096889908022376e-15    5    2  0  0
 4.689391236434304e-14    5    3  0  0
 -2.582266964765342    5    5  0  0
 1.278838146490102e-14    6    1  0  0
 -2.011056260521373    6    6  0  0
 -98.22622298234117  0  0  0  0
