 &FCI NORB=   6,NELEC= 6,MS2=0,
  ORBSYM=1,1,1,1,1,1,
  ISYM=1,
 &END
 0.5563943310840278    1    1    1    1
 0.4914541777487027    1    1    2    2
 0.4914541777487018    1    1    3    3
 1.394515742030727e-14    1    1    4    2
 2.793604106723913e-14    1    1    4    3
 0.4799948687212712    1    1    4    4
 2.783260817998401e-14    1    1    5    2
 -1.389003929236354e-14    1    1    5    3
 0.4799948687212717    1    1    5    5
 -1.24232221732079e-14    1    1    6    1
 0.4013433557721164    1    1    6    6
 0.02239817387211332    2    1    2    1
 3.541671747906804e-15    2    1    4    1
 6.997066982008959e-15    2    1    5    1
 2.47305160291228e-15    2    1    6    2
 0.001155893801323708    2    1    6    4
 0.002316504737962224    2    1    6    5
 0.4914541777487027    2    2    1    1
 0.5486638858601838    2    2    2    2
 0.5055059677293392    2    2    3    3
 -3.359861217369642e-15    2    2    4    2
 -5.549231321851089e-15    2    2    4    3
 0.4738740830796441    2    2    4    4
 -6.801986274576621e-15    2    2    5    2
 2.908101277149244e-15    2    2    5    3
 0.01426299762961579    2    2    5    4
 0.4953413079711693    2    2    5    5
 7.454994137577882e-15    2    2    6    1
 0.3843467456223448    2    2    6    6
 0.02239817387211326    3    1    3    1
 7.0890773783029e-15    3    1    4    1
 -3.531771645605875e-15    3    1    5    1
 2.52686530011724e-15    3    1    6    3
 0.002316504737962155    3    1    6    4
 -0.001155893801323732    3    1    6    5
 0.02157895906542184    3    2    3    2
 0.01426299762961556    3    2    4    4
 0.01073361244576232    3    2    5    4
 -0.01426299762961573    3    2    5    5
 0.4914541777487019    3    3    1    1
 0.5055059677293392    3    3    2    2
 0.548663885860182    3    3    3    3
 -2.914711522269617e-15    3    3    4    2
 -7.017754365362498e-15    3    3    4    3
 0.4953413079711681    3    3    4    4
 -5.969508741487939e-15    3    3    5    2
 3.590010233534002e-15    3    3    5    3
 -0.01426299762961555    3    3    5    4
 0.4738740830796438    3    3    5    5
 7.491383331438288e-15    3    3    6    1
 0.3843467456223441    3    3    6    6
 3.541550743484076e-15    4    1    2    1
 7.087069168549915e-15    4    1    3    1
 0.03351992066838718    4    1    4    1
 0.003534618868136193    4    1    6    2
 0.007083662310111223    4    1    6    3
 3.034941459989313e-15    4    1    6    4
 1.394829966840476e-14    4    2    1    1
 -3.383632350001387e-15    4    2    2    2
 -2.911862103435053e-15    4    2    3    3
 0.04085196067705763    4    2    4    2
 0.05334188682744512    4    2    4    3
 1.340234609693825e-15    4    2    4    4
 0.05334188682744526    4    2    5    2
 -0.01238130522076647    4    2    5    3
 -0.01514327243360909    4    2    6    1
 -2.228475975643033e-15    4    2    6    6
 2.792730376908356e-14    4    3    1    1
 -5.570305501578776e-15    4    3    2    2
 -7.00687338012207e-15    4    3    3    3
 0.05334188682744513    4    3    4    2
 0.1211367865179685    4    3    4    3
 2.695974858936299e-15    4    3    4    4
 0.09266613106167754    4    3    5    2
 -0.05334188682744512    4    3    5    3
 1.932346426966602e-15    4    3    5    5
 -0.03034834368047909    4    3    6    1
 -4.348772783015524e-15    4    3    6    6
 0.4799948687212713    4    4    1    1
 0.4738740830796442    4    4    2    2
 0.01426299762961555    4    4    3    2
 0.495341307971168    4    4    3    3
 1.378156486500637e-15    4    4    4    2
 2.729404430332899e-15    4    4    4    3
 0.4849834134761812    4    4    4    4
 1.913996305197285e-15    4    4    5    2
 0.4480069366755435    4    4    5    5
 2.711711459785632e-15    4    4    6    1
 0.3734222558160493    4    4    6    6
 6.999319137250753e-15    5    1    2    1
 -3.528070837370592e-15    5    1    3    1
 0.03351992066838723    5    1    5    1
 0.007083662310111255    5    1    6    2
 -0.003534618868136196    5    1    6    3
 2.976209131795154e-15    5    1    6    5
 2.778990008505514e-14    5    2    1    1
 -6.770083625651235e-15    5    2    2    2
 -5.957203046830228e-15    5    2    3    3
 0.05334188682744524    5    2    4    2
 0.09266613106167754    5    2    4    3
 1.965467162209699e-15    5    2    4    4
 0.121136786517969    5    2    5    2
 -0.05334188682744524    5    2    5    3
 2.47142868778534e-15    5    2    5    5
 -0.03034834368047914    5    2    6    1
 -3.645375095371846e-15    5    2    6    6
 -1.388238405272308e-14    5    3    1    1
 2.89574137238291e-15    5    3    2    2
 3.584440144872858e-15    5    3    3    3
 -0.01238130522076647    5    3    4    2
 -0.05334188682744511    5    3    4    3
 -1.010467451501205e-15    5    3    4    4
 -0.05334188682744524    5    3    5    2
 0.04085196067705762    5    3    5    3
 -1.199330890676309e-15    5    3    5    5
 0.01514327243360911    5    3    6    1
 1.879132375035549e-15    5    3    6    6
 0.01426299762961579    5    4    2    2
 0.01073361244576232    5    4    3    2
 -0.01426299762961555    5    4    3    3
 0.01848823840031911    5    4    5    4
 0.4799948687212717    5    5    1    1
 0.4953413079711692    5    5    2    2
 -0.01426299762961576    5    5    3    2
 0.4738740830796438    5    5    3    3
 1.935707453701307e-15    5    5    4    3
 0.4480069366755434    5    5    4    4
 2.459458418174743e-15    5    5    5    2
 -1.205741236021129e-15    5    5    5    3
 0.484983413476182    5    5    5    5
 2.741391786947461e-15    5    5    6    1
 0.3734222558160522    5    5    6    6
 -1.241444013561077e-14    6    1    1    1
 7.40325769438277e-15    6    1    2    2
 7.515052490893182e-15    6    1    3    3
 -0.01514327243360912    6    1    4    2
 -0.0303483436804791    6    1    4    3
 2.608161523926348e-15    6    1    4    4
 -0.03034834368047915    6    1    5    2
 0.01514327243360911    6    1    5    3
 2.606527901773559e-15    6    1    5    5
 0.03367435893418848    6    1    6    1
 5.271336752515898e-15    6    1    6    6
 2.482278166137007e-15    6    2    2    1
 0.003534618868136191    6    2    4    1
 0.007083662310111239    6    2    5    1
 0.01919391250394214    6    2    6    2
 2.510635468484614e-15    6    3    3    1
 0.007083662310111219    6    3    4    1
 -0.003534618868136189    6    3    5    1
 0.0191939125039421    6    3    6    3
 0.001155893801323709    6    4    2    1
 0.002316504737962157    6    4    3    1
 3.047143824112798e-15    6    4    4    1
 0.02184194290214965    6    4    6    4
 0.002316504737962199    6    5    2    1
 -0.001155893801323719    6    5    3    1
 2.987959148810514e-15    6    5    5    1
 0.02184194290214967    6    5    6    5
 0.4013433557721144    6    6    1    1
 0.3843467456223451    6    6    2    2
 0.3843467456223444    6    6    3    3
 -2.089081403526538e-15    6    6    4    2
 -4.20214400385574e-15    6    6    4    3
 0.3734222558160499    6    6    4    4
 -4.228496892910716e-15    6    6    5    2
 2.121675231336884e-15    6    6    5    3
 0.37342225581605    6    6    5    5
 5.565860272671586e-15    6    6    6    1
 0.3646887621855676    6    6    6    6
 -3.093498196099563    1    1  0  0
 -3.06695187880978    2    2  0  0
 -3.066951878809776    3    3  0  0
 -3.127690164153596e-14    4    2  0  0
 -6.378979375970539e-14    4    3  0  0
 -2.578071162552372    4    4  0  0
 -6.248300488120861e-14    5    2  0  0
 3.117124613982725e-14    5    3  0  0
 -2.578071162552373    5    5  0  0
 6.13398221105399e-15    6    1  0  0
 -1.719383764879205    6    6  0  0
 -97.93387684970116  0  0  0  0
