 &FCI NORB=   6,NELEC= 6,MS2=0,
  ORBSYM=1,1,1,1,1,1,
  ISYM=1,
 &END
 0.520355255982744    1    1    1    1
 0.4556464217767854    1    1    2    2
 0.4556464217767853    1    1    3    3
 1.998869819663796e-13    1    1    4    2
 1.444443794174771e-13    1    1    4    3
 0.4602499075158808    1    1    4    4
 1.444210419657144e-13    1    1    5    2
 -1.99725761103331e-13    1    1    5    3
 0.4602499075158802    1    1    5    5
 -2.276221745811657e-13    1    1    6    1
 -1.191479576940644e-15    1    1    6    5
 0.4988591006481201    1    1    6    6
 0.02018382314250877    2    1    2    1
 9.707979001443886e-14    2    1    4    1
 -1.724257054118857e-15    2    1    4    2
 7.025643910504226e-14    2    1    5    1
 -1.185035112206159e-15    2    1    5    2
 1.695723356691543e-15    2    1    5    3
 1.800157365821616e-15    2    1    6    1
 1.521093059180575e-13    2    1    6    2
 -0.008942953657621211    2    1    6    4
 -0.006471040354871962    2    1    6    5
 0.4556464217767853    2    2    1    1
 0.4801903170784213    2    2    2    2
 0.4446100987491531    2    2    3    3
 -1.163643915383025e-12    2    2    4    2
 -7.080444086940418e-13    2    2    4    3
 0.4626871546496188    2    2    4    4
 -8.423101083808449e-13    2    2    5    2
 9.782043881509384e-13    2    2    5    3
 0.01642770665861246    2    2    5    4
 0.4518710651691494    2    2    5    5
 1.208137440352242e-12    2    2    6    1
 0.4651806513177756    2    2    6    6
 0.0201838231425088    3    1    3    1
 7.021568105046394e-14    3    1    4    1
 1.586662612570657e-15    3    1    4    2
 1.349022732385415e-15    3    1    4    3
 -9.709104770563546e-14    3    1    5    1
 1.375754634408564e-15    3    1    5    2
 -1.80225561859901e-15    3    1    5    3
 -1.936066569099992e-15    3    1    6    1
 1.521417150926853e-13    3    1    6    3
 -0.006471040354871931    3    1    6    4
 0.008942953657621204    3    1    6    5
 0.01779010916463404    3    2    3    2
 -6.794500076951291e-14    3    2    4    2
 -9.343419768469071e-14    3    2    4    3
 0.01642770665861232    3    2    4    4
 9.221738943381811e-14    3    2    5    2
 -6.637354515728552e-14    3    2    5    3
 -0.005408044740234437    3    2    5    4
 -0.01642770665861254    3    2    5    5
 0.4556464217767853    3    3    1    1
 0.4446100987491531    3    3    2    2
 0.4801903170784211    3    3    3    3
 -9.786458752755745e-13    3    3    4    2
 -8.425459901159962e-13    3    3    4    3
 0.45187106516915    3    3    4    4
 -7.082221094301122e-13    3    3    5    2
 1.164515098933672e-12    3    3    5    3
 -0.01642770665861239    3    3    5    4
 0.4626871546496183    3    3    5    5
 1.208593871247454e-12    3    3    6    1
 0.4651806513177752    3    3    6    6
 9.70780974838914e-14    4    1    2    1
 7.02165009128618e-14    4    1    3    1
 0.02394498254291863    4    1    4    1
 -0.004556776809660264    4    1    6    2
 -0.003297242471823288    4    1    6    3
 4.515304112323506e-14    4    1    6    4
 1.998973515873823e-13    4    2    1    1
 -1.724257054118857e-15    4    2    2    1
 -1.163596698378414e-12    4    2    2    2
 1.586662612570657e-15    4    2    3    1
 -6.794619120814582e-14    4    2    3    2
 -9.786474338161974e-13    4    2    3    3
 0.1233891717546509    4    2    4    2
 0.07812550107778418    4    2    4    3
 6.902483006823376e-13    4    2    4    4
 2.871429841081962e-15    4    2    5    1
 0.07812550107778408    4    2    5    2
 -0.09254913099168938    4    2    5    3
 4.672529859773081e-14    4    2    5    4
 5.582150952414267e-13    4    2    5    5
 -0.09966197705937334    4    2    6    1
 2.243667945561753e-15    4    2    6    2
 -2.815966155620476e-15    4    2    6    3
 -1.926629134351886e-15    4    2    6    5
 1.916557060428965e-13    4    2    6    6
 1.444582769523006e-13    4    3    1    1
 -7.080202038805411e-13    4    3    2    2
 1.349022732385415e-15    4    3    3    1
 -9.34232075380792e-14    4    3    3    2
 -8.425604235574174e-13    4    3    3    3
 0.07812550107778418    4    3    4    2
 0.07195092611731642    4    3    4    3
 4.992550706414711e-13    4    3    4    4
 2.089543588370131e-15    4    3    5    1
 0.04111088535435492    4    3    5    2
 -0.07812550107778413    4    3    5    3
 -6.568531119412538e-14    4    3    5    4
 4.039033647471046e-13    4    3    5    5
 -0.07211450490386087    4    3    6    1
 1.141360451030452e-15    4    3    6    2
 -2.374458155852138e-15    4    3    6    3
 -1.353146299274093e-15    4    3    6    5
 1.385496913365766e-13    4    3    6    6
 0.4602499075158809    4    4    1    1
 0.462687154649619    4    4    2    2
 0.01642770665861232    4    4    3    2
 0.4518710651691501    4    4    3    3
 6.902361982755872e-13    4    4    4    2
 4.992112680266697e-13    4    4    4    3
 0.4797861168413982    4    4    4    4
 4.046238170907213e-13    4    4    5    2
 -5.594740165940082e-13    4    4    5    3
 0.4428206868690046    4    4    5    5
 -4.495148856658954e-13    4    4    6    1
 0.4603007615993873    4    4    6    6
 7.025845172082001e-14    5    1    2    1
 -9.709107327534272e-14    5    1    3    1
 2.871429841081962e-15    5    1    4    2
 2.08954358837013e-15    5    1    4    3
 0.02394498254291864    5    1    5    1
 2.188559117854148e-15    5    1    5    2
 -3.006108299154844e-15    5    1    5    3
 -3.110158457893488e-15    5    1    6    1
 -0.003297242471823272    5    1    6    2
 0.004556776809660268    5    1    6    3
 4.523859314497364e-14    5    1    6    5
 1.444006663229102e-13    5    2    1    1
 -1.185035112206158e-15    5    2    2    1
 -8.422944958695611e-13    5    2    2    2
 1.375754634408564e-15    5    2    3    1
 9.221050030309985e-14    5    2    3    2
 -7.082026751061704e-13    5    2    3    3
 0.0781255010777841    5    2    4    2
 0.04111088535435493    5    2    4    3
 4.04575565011848e-13    5    2    4    4
 2.18855911785415e-15    5    2    5    1
 0.07195092611731625    5    2    5    2
 -0.07812550107778406    5    2    5    3
 6.479124420137594e-14    5    2    5    4
 4.979985065815817e-13    5    2    5    5
 -0.07211450490386079    5    2    6    1
 1.399430424627449e-15    5    2    6    2
 -2.36523683332478e-15    5    2    6    3
 -1.434268385914851e-15    5    2    6    5
 1.383940869034531e-13    5    2    6    6
 -1.997104041523347e-13    5    3    1    1
 1.695723356691542e-15    5    3    2    1
 9.781862277645492e-13    5    3    2    2
 -1.80225561859901e-15    5    3    3    1
 -6.638186365610227e-14    5    3    3    2
 1.164499825235567e-12    5    3    3    3
 -0.09254913099168938    5    3    4    2
 -0.07812550107778413    5    3    4    3
 -5.594737540137945e-13    5    3    4    4
 -3.006108299154845e-15    5    3    5    1
 -0.07812550107778406    5    3    5    2
 0.1233891717546508    5    3    5    3
 4.764912694011497e-14    5    3    5    4
 -6.883649195359859e-13    5    3    5    5
 0.09966197705937331    5    3    6    1
 -2.244071698876499e-15    5    3    6    2
 3.043636893211166e-15    5    3    6    3
 2.035083433993055e-15    5    3    6    5
 -1.914287001679242e-13    5    3    6    6
 0.01642770665861246    5    4    2    2
 -0.005408044740234427    5    4    3    2
 -0.01642770665861237    5    4    3    3
 4.672994033828176e-14    5    4    4    2
 -6.568712045650071e-14    5    4    4    3
 6.478823554034729e-14    5    4    5    2
 4.7644212454955e-14    5    4    5    3
 0.01848271498619641    5    4    5    4
 0.4602499075158802    5    5    1    1
 0.4518710651691495    5    5    2    2
 -0.01642770665861251    5    5    3    2
 0.4626871546496183    5    5    3    3
 5.582056084724174e-13    5    5    4    2
 4.039231785418068e-13    5    5    4    3
 0.4428206868690047    5    5    4    4
 4.979958502862591e-13    5    5    5    2
 -6.884169883453195e-13    5    5    5    3
 0.4797861168413969    5    5    5    5
 -4.481186443400414e-13    5    5    6    1
 0.4603007615993866    5    5    6    6
 -2.276138262244376e-13    6    1    1    1
 1.800157365821615e-15    6    1    2    1
 1.208182615368078e-12    6    1    2    2
 -1.936066569099992e-15    6    1    3    1
 1.208704902659619e-12    6    1    3    3
 -0.09966197705937334    6    1    4    2
 -0.07211450490386084    6    1    4    3
 -4.495578104115987e-13    6    1    4    4
 -3.110158457893487e-15    6    1    5    1
 -0.07211450490386077    6    1    5    2
 0.0996619770593733    6    1    5    3
 -4.48168141053279e-13    6    1    5    5
 0.1327750876698492    6    1    6    1
 -2.126390320962478e-15    6    1    6    2
 3.124821011946191e-15    6    1    6    3
 2.102714328615356e-15    6    1    6    5
 -6.275015229650904e-14    6    1    6    6
 1.521096074933205e-13    6    2    2    1
 -0.004556776809660266    6    2    4    1
 2.243667945561753e-15    6    2    4    2
 1.141360451030452e-15    6    2    4    3
 -0.003297242471823275    6    2    5    1
 1.399430424627449e-15    6    2    5    2
 -2.244071698876499e-15    6    2    5    3
 -2.126390320962478e-15    6    2    6    1
 0.02346863503715619    6    2    6    2
 1.507996811732533e-14    6    2    6    4
 1.085935540708766e-14    6    2    6    5
 1.52140615612386e-13    6    3    3    1
 -0.003297242471823289    6    3    4    1
 -2.815966155620476e-15    6    3    4    2
 -2.374458155852138e-15    6    3    4    3
 0.004556776809660271    6    3    5    1
 -2.365236833324781e-15    6    3    5    2
 3.043636893211166e-15    6    3    5    3
 3.124821011946192e-15    6    3    6    1
 0.02346863503715615    6    3    6    3
 1.089713985279878e-14    6    3    6    4
 -1.50425868592971e-14    6    3    6    5
 -0.008942953657621213    6    4    2    1
 -0.006471040354871933    6    4    3    1
 4.515198651368239e-14    6    4    4    1
 1.508298694274934e-14    6    4    6    2
 1.090004009361017e-14    6    4    6    3
 0.02511213080971198    6    4    6    4
 -1.191479576940643e-15    6    5    1    1
 -0.006471040354871963    6    5    2    1
 0.008942953657621208    6    5    3    1
 -1.926629134351888e-15    6    5    4    2
 -1.353146299274094e-15    6    5    4    3
 4.52408217421912e-14    6    5    5    1
 -1.434268385914851e-15    6    5    5    2
 2.035083433993055e-15    6    5    5    3
 2.102714328615355e-15    6    5    6    1
 1.085996527080968e-14    6    5    6    2
 -1.504574459812447e-14    6    5    6    3
 0.0251121308097119    6    5    6    5
 0.4988591006481201    6    6    1    1
 0.4651806513177754    6    6    2    2
 0.4651806513177753    6    6    3    3
 1.916491054396174e-13    6    6    4    2
 1.385200683540547e-13    6    6    4    3
 0.4603007615993872    6    6    4    4
 1.384168387547069e-13    6    6    5    2
 -1.914220192945904e-13    6    6    5    3
 0.4603007615993867    6    6    5    5
 -6.275492278606798e-14    6    6    6    1
 0.5190946634660452    6    6    6    6
 -2.855272946837437    1    1  0  0
 -2.704159653661116    2    2  0  0
 -2.704159653661115    3    3  0  0
 -1.566861224100435e-12    4    2  0  0
 -1.133428637403733e-12    4    3  0  0
 -2.542833485207538    4    4  0  0
 -3.115878040030632e-15    5    1  0  0
 -1.131957808736539e-12    5    2  0  0
 1.565036728684577e-12    5    3  0  0
 -2.542833485207534    5    5  0  0
 7.739937163409039e-13    6    1  0  0
 -3.0447113894147e-15    6    5  0  0
 -2.450645297430499    6    6  0  0
 -98.85722096788368  0  0  0  0
