 &FCI NORB=   6,NELEC= 6,MS2=0,
  ORBSYM=1,1,1,1,1,1,
  ISYM=1,
 &END
 0.4458228019079037    1    1    1    1
 0.4028392617810309    1    1    2    2
 0.4028392617810301    1    1    3    3
 3.499340484931627e-15    1    1    4    1
 -1.43468084878304e-08    1    1    4    2
 4.520700375157498e-10    1    1    4    3
 0.4060926472888764    1    1    4    4
 -4.538284180036094e-10    1    1    5    2
 -1.434550296090404e-08    1    1    5    3
 0.4060926472888761    1    1    5    5
 1.637156068664527e-08    1    1    6    1
 -9.271817663357871e-14    1    1    6    2
 3.688752149933335e-15    1    1    6    3
 0.454253480204464    1    1    6    6
 0.01756418956520299    2    1    2    1
 -1.052609724023422e-09    2    1    4    1
 4.074022175357079e-13    2    1    4    2
 -1.313420189448374e-14    2    1    4    3
 -3.316527467006006e-11    2    1    5    1
 1.289227453639202e-14    2    1    5    2
 3.754729017303883e-13    2    1    5    3
 -3.900358512657057e-13    2    1    6    1
 1.861584033921466e-09    2    1    6    2
 2.136304334827814e-12    2    1    6    3
 -0.01655860858390421    2    1    6    4
 -0.0005228026970457225    2    1    6    5
 0.4028392617810309    2    2    1    1
 0.4279668171273372    2    2    2    2
 0.3956095296900328    2    2    3    3
 7.011604493144451e-14    2    2    4    1
 -2.63899592859278e-08    2    2    4    2
 7.082891104426655e-10    2    2    4    3
 0.4334362311864446    2    2    4    4
 1.898661521916936e-15    2    2    5    1
 -8.342242432480743e-10    2    2    5    2
 -2.26054883230012e-08    2    2    5    3
 0.001053666255907332    2    2    5    4
 0.4000969714730909    2    2    5    5
 2.207800500622443e-08    2    2    6    1
 -3.711474901099901e-14    2    2    6    2
 1.326310423378337e-15    2    2    6    3
 0.4160429919538859    2    2    6    6
 0.01756418956520296    3    1    3    1
 3.330582839096312e-11    3    1    4    1
 -1.567430104866326e-14    3    1    4    2
 -1.052714273073573e-09    3    1    5    1
 3.227208532533291e-14    3    1    5    2
 -1.591669485554e-14    3    1    5    3
 1.520160105451157e-14    3    1    6    1
 2.136306989852587e-12    3    1    6    2
 1.858195189451156e-09    3    1    6    3
 0.0005228026970457169    3    1    6    4
 -0.01655860858390418    3    1    6    5
 0.01617864371865179    3    2    3    2
 -2.212222010115871e-15    3    2    4    1
 3.128937763073835e-11    3    2    4    2
 -1.8871368170202e-09    3    2    4    3
 -0.001053666255907347    3    2    4    4
 3.136676885040774e-14    3    2    5    1
 -1.892429013738764e-09    3    2    5    2
 -8.804233670744244e-11    3    2    5    3
 0.01666962985667663    3    2    5    4
 0.001053666255907418    3    2    5    5
 2.503534471609694e-11    3    2    6    1
 -2.463667297483731e-15    3    2    6    3
 0.4028392617810301    3    3    1    1
 0.3956095296900328    3    3    2    2
 0.4279668171273355    3    3    3    3
 7.394227704958969e-15    3    3    4    1
 -2.256515422695233e-08    3    3    4    2
 8.3060576932531e-10    3    3    4    3
 0.4000969714730905    3    3    4    4
 -2.528227101595945e-15    3    3    5    1
 -7.178774843065433e-10    3    3    5    2
 -2.633981499243745e-08    3    3    5    3
 -0.001053666255907429    3    3    5    4
 0.4334362311864434    3    3    5    5
 2.203829242563983e-08    3    3    6    1
 -3.216837937443723e-14    3    3    6    2
 1.526834117568139e-15    3    3    6    3
 0.4160429919538851    3    3    6    6
 3.499340484931633e-15    4    1    1    1
 -1.052609722981999e-09    4    1    2    1
 7.011604493144454e-14    4    1    2    2
 3.33058284922617e-11    4    1    3    1
 -2.212222010115867e-15    4    1    3    2
 7.394227704958925e-15    4    1    3    3
 0.01610086007806654    4    1    4    1
 1.489307453621589e-14    4    1    4    4
 1.0465366181472e-14    4    1    5    5
 -0.01475035261572012    4    1    6    2
 0.0004657108772635549    4    1    6    3
 -1.431122795763446e-09    4    1    6    4
 -2.169113801979937e-12    4    1    6    5
 -4.912977389399649e-14    4    1    6    6
 -1.434680846380644e-08    4    2    1    1
 4.07402217535708e-13    4    2    2    1
 -2.638995926613433e-08    4    2    2    2
 -1.567430104866326e-14    4    2    3    1
 3.128936494361417e-11    4    2    3    2
 -2.256515425276947e-08    4    2    3    3
 0.2233757836499122    4    2    4    2
 -0.006539448298610357    4    2    4    3
 2.194490151803083e-08    4    2    4    4
 0.00653944829861032    4    2    5    2
 0.1908690752357241    4    2    5    3
 7.95058787923309e-11    4    2    5    4
 1.866138571010195e-08    4    2    5    5
 -0.1826596382267248    4    2    6    1
 3.801245294992572e-13    4    2    6    4
 -1.554518216293992e-15    4    2    6    5
 1.06573779881082e-08    4    2    6    6
 4.520700438533573e-10    4    3    1    1
 -1.313420189448372e-14    4    3    2    1
 7.082891054523709e-10    4    3    2    2
 -1.887136818252951e-09    4    3    3    2
 8.306057720491562e-10    4    3    3    3
 -0.006539448298610344    4    3    4    2
 0.01645982331893873    4    3    4    3
 -6.942073072761332e-10    4    3    4    4
 0.01604688509524912    4    3    5    2
 -0.006539448298610343    4    3    5    3
 1.622979782157996e-09    4    3    5    4
 -5.857424468671006e-10    4    3    5    5
 0.00576708791819338    4    3    6    1
 -1.196597537138268e-14    4    3    6    4
 3.164385418495979e-14    4    3    6    5
 -3.375612062465834e-10    4    3    6    6
 0.4060926472888764    4    4    1    1
 0.4334362311864446    4    4    2    2
 -0.001053666255907349    4    4    3    2
 0.4000969714730905    4    4    3    3
 1.489307453621591e-14    4    4    4    1
 2.194490153698372e-08    4    4    4    2
 -6.942073236437081e-10    4    4    4    3
 0.4403428334713456    4    4    4    4
 5.938306009058231e-10    4    4    5    2
 1.869895797035592e-08    4    4    5    3
 0.4055268702745902    4    4    5    5
 -1.746083095545471e-08    4    4    6    1
 2.74919861149829e-14    4    4    6    2
 0.42034283048038    4    4    6    6
 -3.316527493452089e-11    5    1    2    1
 1.898661521916913e-15    5    1    2    2
 -1.052714273203589e-09    5    1    3    1
 3.136676885040774e-14    5    1    3    2
 -2.528227101595942e-15    5    1    3    3
 0.01610086007806654    5    1    5    1
 1.041124537388844e-15    5    1    5    3
 2.210930601138262e-15    5    1    5    4
 -0.0004657108772635542    5    1    6    2
 -0.0147503526157201    5    1    6    3
 -2.16911086277561e-12    5    1    6    4
 -1.428107518304644e-09    5    1    6    5
 -4.538284146301937e-10    5    2    1    1
 1.2892274536392e-14    5    2    2    1
 -8.342242304311953e-10    5    2    2    2
 3.227208532533293e-14    5    2    3    1
 -1.892429014649113e-09    5    2    3    2
 -7.178774669944075e-10    5    2    3    3
 0.006539448298610325    5    2    4    2
 0.01604688509524912    5    2    4    3
 5.938305939173778e-10    5    2    4    4
 0.01645982331893875    5    2    5    2
 0.006539448298610317    5    2    5    3
 1.621433219852531e-09    5    2    5    4
 6.902365466182574e-10    5    2    5    5
 -0.005767087918193362    5    2    6    1
 1.088728642104118e-14    5    2    6    4
 -3.598788267307947e-15    5    2    6    5
 3.354560183676062e-10    5    2    6    6
 -1.434550298330328e-08    5    3    1    1
 3.754729017303883e-13    5    3    2    1
 -2.260548829809123e-08    5    3    2    2
 -1.591669485554003e-14    5    3    3    1
 -8.804233584076891e-11    5    3    3    2
 -2.633981500166122e-08    5    3    3    3
 0.1908690752357241    5    3    4    2
 -0.006539448298610352    5    3    4    3
 1.869895791074068e-08    5    3    4    4
 1.041124537388845e-15    5    3    5    1
 0.006539448298610327    5    3    5    2
 0.2233757836499117    5    3    5    3
 -2.292953178809629e-11    5    3    5    4
 2.190426808968764e-08    5    3    5    5
 -0.1826596382267246    5    3    6    1
 3.520831499422847e-13    5    3    6    4
 -2.629689656255864e-15    5    3    6    5
 1.065894094613211e-08    5    3    6    6
 0.001053666255907326    5    4    2    2
 0.01666962985667664    5    4    3    2
 -0.001053666255907436    5    4    3    3
 7.950587606530833e-11    5    4    4    2
 1.622979784337756e-09    5    4    4    3
 2.210930601138266e-15    5    4    5    1
 1.621433221584078e-09    5    4    5    2
 -2.292953462099798e-11    5    4    5    3
 0.01740798159837751    5    4    5    4
 -2.494921819773191e-11    5    4    6    1
 3.001919359326025e-14    5    4    6    3
 0.4060926472888761    5    5    1    1
 0.400096971473091    5    5    2    2
 0.001053666255907422    5    5    3    2
 0.4334362311864434    5    5    3    3
 1.046536618147207e-14    5    5    4    1
 1.86613856933451e-08    5    5    4    2
 -5.857424487711777e-10    5    5    4    3
 0.4055268702745902    5    5    4    4
 6.902365534687422e-10    5    5    5    2
 2.190426813128241e-08    5    5    5    3
 0.4403428334713449    5    5    5    5
 -1.742614577935533e-08    5    5    6    1
 -3.254754851193849e-14    5    5    6    2
 0.4203428304803797    5    5    6    6
 1.637156078296309e-08    6    1    1    1
 -3.900358512657056e-13    6    1    2    1
 2.207800507587627e-08    6    1    2    2
 1.520160105451158e-14    6    1    3    1
 2.503535267516074e-11    6    1    3    2
 2.203829244415607e-08    6    1    3    3
 -0.1826596382267248    6    1    4    2
 0.005767087918193383    6    1    4    3
 -1.746083094408666e-08    6    1    4    4
 -0.005767087918193355    6    1    5    2
 -0.1826596382267246    6    1    5    3
 -2.494921813361774e-11    6    1    5    4
 -1.742614577445695e-08    6    1    5    5
 0.2056608889536942    6    1    6    1
 -3.624424169869707e-13    6    1    6    4
 2.633250629946711e-15    6    1    6    5
 -1.134198984877694e-08    6    1    6    6
 -9.271817663357857e-14    6    2    1    1
 1.861584035359041e-09    6    2    2    1
 -3.7114749010999e-14    6    2    2    2
 2.136306913660203e-12    6    2    3    1
 -3.21683793744373e-14    6    2    3    3
 -0.01475035261572012    6    2    4    1
 2.749198611498291e-14    6    2    4    4
 -0.0004657108772635538    6    2    5    1
 -3.254754851193851e-14    6    2    5    5
 0.01804576151800492    6    2    6    2
 9.372451038468406e-10    6    2    6    4
 2.945903195286593e-11    6    2    6    5
 -3.797492716688723e-14    6    2    6    6
 3.688752149933359e-15    6    3    1    1
 2.136303431237003e-12    6    3    2    1
 1.326310423378353e-15    6    3    2    2
 1.85819519047977e-09    6    3    3    1
 -2.463667297483732e-15    6    3    3    2
 1.526834117568134e-15    6    3    3    3
 0.0004657108772635546    6    3    4    1
 -0.0147503526157201    6    3    5    1
 3.001919359326024e-14    6    3    5    4
 0.01804576151800489    6    3    6    3
 -2.973033747323323e-11    6    3    6    4
 9.374463187329463e-10    6    3    6    5
 1.568592143036581e-15    6    3    6    6
 -0.01655860858390421    6    4    2    1
 0.0005228026970457176    6    4    3    1
 -1.431122793387946e-09    6    4    4    1
 3.801245294992571e-13    6    4    4    2
 -1.19659753713827e-14    6    4    4    3
 -2.169111180612742e-12    6    4    5    1
 1.088728642104116e-14    6    4    5    2
 3.520831499422847e-13    6    4    5    3
 -3.624424169869707e-13    6    4    6    1
 9.372451053918287e-10    6    4    6    2
 -2.97303373749774e-11    6    4    6    3
 0.01907353569604099    6    4    6    4
 -0.0005228026970457223    6    5    2    1
 -0.01655860858390418    6    5    3    1
 -2.169113961663513e-12    6    5    4    1
 -1.554518216294001e-15    6    5    4    2
 3.16438541849598e-14    6    5    4    3
 -1.428107515813093e-09    6    5    5    1
 -3.598788267307947e-15    6    5    5    2
 -2.629689656255872e-15    6    5    5    3
 2.633250629946711e-15    6    5    6    1
 2.945903279481668e-11    6    5    6    2
 9.374463183441582e-10    6    5    6    3
 0.01907353569604097    6    5    6    5
 0.454253480204464    6    6    1    1
 0.4160429919538858    6    6    2    2
 0.416042991953885    6    6    3    3
 -4.912977389399647e-14    6    6    4    1
 1.065737797334719e-08    6    6    4    2
 -3.375612043577184e-10    6    6    4    3
 0.4203428304803801    6    6    4    4
 3.354560255165457e-10    6    6    5    2
 1.06589409463504e-08    6    6    5    3
 0.4203428304803798    6    6    5    5
 -1.134198980315236e-08    6    6    6    1
 -3.797492716688714e-14    6    6    6    2
 1.568592143036576e-15    6    6    6    3
 0.4744724594308681    6    6    6    6
 -2.438927729835643    1    1  0  0
 -2.355362719969082    2    2  0  0
 -2.355362719969077    3    3  0  0
 4.218173523189281e-14    4    1  0  0
 5.858365109755008e-10    4    2  0  0
 -1.581271994176596e-11    4    3  0  0
 -2.344672206559204    4    4  0  0
 2.10574056767345e-11    5    2  0  0
 5.819456800570087e-10    5    3  0  0
 -2.344672206559202    5    5  0  0
 -1.227467407230453e-10    6    1  0  0
 8.796339609901133e-14    6    2  0  0
 -3.614286494659631e-15    6    3  0  0
 -2.37855952786943    6    6  0  0
 -99.85849846605548  0  0  0  0
