 &FCI NORB=   6,NELEC= 6,MS2=0,
  ORBSYM=1,1,1,1,1,1,
  ISYM=1,
 &END
 0.4695628583530471    1    1    1    1
 0.4202664016745686    1    1    2    2
 0.4202664016745682    1    1    3    3
 1.036156272951226e-11    1    1    4    2
 -7.418153207332721e-11    1    1    4    3
 0.4244990408047685    1    1    4    4
 -7.420481876261719e-11    1    1    5    2
 -1.036486416663209e-11    1    1    5    3
 0.4244990408047677    1    1    5    5
 8.55447677213135e-11    1    1    6    1
 -8.024697654591081e-15    1    1    6    2
 -1.293045876610177e-15    1    1    6    3
 0.475323341648716    1    1    6    6
 0.0186976883255155    2    1    2    1
 6.62617508377677e-13    2    1    4    1
 -4.176844148657234e-15    2    1    4    2
 2.733150497194571e-14    2    1    4    3
 -4.743229668410064e-12    2    1    5    1
 2.9738677224409e-14    2    1    5    2
 4.196879903726041e-15    2    1    5    3
 -2.849286015602522e-14    2    1    6    1
 1.173959228134948e-11    2    1    6    2
 5.658714565448444e-15    2    1    6    3
 0.002227287316431847    2    1    6    4
 -0.01594584293929635    2    1    6    5
 0.4202664016745686    2    2    1    1
 0.4407223021207465    2    2    2    2
 0.4081049950859726    2    2    3    3
 2.215087432444143e-11    2    2    4    2
 -1.349064638732234e-10    2    2    4    3
 0.4131377855539292    2    2    4    4
 5.070775678750091e-15    2    2    5    1
 -1.586082789442573e-10    2    2    5    2
 -1.885949438910975e-11    2    2    5    3
 -0.004610853261928897    2    2    5    4
 0.4455042828856302    2    2    5    5
 1.325902822258132e-10    2    2    6    1
 -4.034393913250068e-15    2    2    6    2
 0.433290363316118    2    2    6    6
 0.01869768832551547    3    1    3    1
 -4.744006587928728e-12    3    1    4    1
 1.969355444461909e-15    3    1    4    2
 4.370054967582792e-15    3    1    4    3
 -6.625510889136615e-13    3    1    5    1
 4.350357032056778e-15    3    1    5    2
 -4.155817142363219e-15    3    1    6    1
 5.642124789901758e-15    3    1    6    2
 1.16991250713038e-11    3    1    6    3
 -0.01594584293929638    3    1    6    4
 -0.002227287316431844    3    1    6    5
 0.01630865351738676    3    2    3    2
 2.310982560890967e-15    3    2    4    1
 -1.18278725661415e-11    3    2    4    2
 1.572724968178844e-12    3    2    4    3
 -0.004610853261928959    3    2    4    4
 -1.728178517535501e-12    3    2    5    2
 -1.180435665144868e-11    3    2    5    3
 0.01618324866585077    3    2    5    4
 0.004610853261928957    3    2    5    5
 6.520059893377374e-14    3    2    6    1
 0.4202664016745683    3    3    1    1
 0.4081049950859726    3    3    2    2
 0.4407223021207458    3    3    3    3
 1.876313166024261e-11    3    3    4    2
 -1.580074650483182e-10    3    3    4    3
 0.4455042828856304    3    3    4    4
 -1.344449392750625e-10    3    3    5    2
 -2.20735331314559e-11    3    3    5    3
 0.004610853261929049    3    3    5    4
 0.4131377855539282    3    3    5    5
 1.321246074852374e-10    3    3    6    1
 -3.44453211219439e-15    3    3    6    2
 0.4332903633161176    3    3    6    6
 6.626174455971365e-13    4    1    2    1
 -4.744006199040675e-12    4    1    3    1
 2.310982560890967e-15    4    1    3    2
 0.01747804147410247    4    1    4    1
 0.001833502218493465    4    1    6    2
 -0.0131266128932957    4    1    6    3
 -7.47539491694602e-12    4    1    6    4
 1.036155793716592e-11    4    2    1    1
 -4.176844148657233e-15    4    2    2    1
 2.215087212469687e-11    4    2    2    2
 1.96935544446191e-15    4    2    3    1
 -1.182787018322606e-11    4    2    3    2
 1.876311210836638e-11    4    2    3    3
 0.01976673028543053    4    2    4    2
 -0.02655454720650649    4    2    4    3
 -1.696906648577279e-11    4    2    4    4
 -0.02655454720650644    4    2    5    2
 0.01234854531875324    4    2    5    3
 9.581903122119259e-12    4    2    5    4
 -1.43578584893729e-11    4    2    5    5
 0.02324029482457145    4    2    6    1
 -3.555427396416652e-15    4    2    6    5
 -7.33984101568868e-12    4    2    6    6
 -7.418149518980079e-11    4    3    1    1
 2.73315049719457e-14    4    3    2    1
 -1.349064664640061e-10    4    3    2    2
 4.370054967582793e-15    4    3    3    1
 1.572721238586898e-12    4    3    3    2
 -1.580075760268132e-10    4    3    3    3
 -0.02655454720650648    4    3    4    2
 0.2061699039453902    4    3    4    3
 1.21487128322869e-10    4    3    4    4
 1.436347955911689e-15    4    3    5    1
 0.1740546283412063    4    3    5    2
 0.02655454720650652    4    3    5    3
 1.337014896853842e-12    4    3    5    4
 1.027910214357244e-10    4    3    5    5
 -0.1663845020808741    4    3    6    1
 1.317237594029687e-15    4    3    6    2
 2.549879914289357e-14    4    3    6    5
 5.254827786960934e-11    4    3    6    6
 0.4244990408047685    4    4    1    1
 0.4131377855539293    4    4    2    2
 -0.00461085326192896    4    4    3    2
 0.4455042828856305    4    4    3    3
 -1.69690554569803e-11    4    4    4    2
 1.21487200230884e-10    4    4    4    3
 0.4547776384617462    4    4    4    4
 1.022896547331212e-10    4    4    5    2
 1.428736567073895e-11    4    4    5    3
 0.4191789385259206    4    4    5    5
 -9.481534704626532e-11    4    4    6    1
 -3.513211898030552e-15    4    4    6    2
 0.43767322442207    4    4    6    6
 -4.74322955246648e-12    5    1    2    1
 5.070775678750092e-15    5    1    2    2
 -6.625507349539921e-13    5    1    3    1
 1.436347955911685e-15    5    1    4    3
 0.01747804147410247    5    1    5    1
 1.566644945179459e-15    5    1    5    2
 -1.47283611204547e-15    5    1    6    1
 -0.01312661289329567    5    1    6    2
 -0.001833502218493462    5    1    6    3
 -7.515972944656304e-12    5    1    6    5
 -3.712974840253395e-15    5    1    6    6
 -7.420484445705013e-11    5    2    1    1
 2.973867722440899e-14    5    2    2    1
 -1.586082540668996e-10    5    2    2    2
 4.350357032056779e-15    5    2    3    1
 -1.728181471218797e-12    5    2    3    2
 -1.344449441191381e-10    5    2    3    3
 -0.02655454720650644    5    2    4    2
 0.1740546283412063    5    2    4    3
 1.02289649456953e-10    5    2    4    4
 1.566644945179462e-15    5    2    5    1
 0.2061699039453898    5    2    5    2
 0.02655454720650648    5    2    5    3
 -1.346391128063474e-12    5    2    5    4
 1.220164594226613e-10    5    2    5    5
 -0.1663845020808739    5    2    6    1
 1.428145015460066e-15    5    2    6    2
 2.752040642803239e-14    5    2    6    5
 5.252222000553333e-11    5    2    6    6
 -1.036485391143812e-11    5    3    1    1
 4.196879903726041e-15    5    3    2    1
 -1.885949353974746e-11    5    3    2    2
 -1.180435434060715e-11    5    3    3    2
 -2.207354150210019e-11    5    3    3    3
 0.01234854531875324    5    3    4    2
 0.02655454720650652    5    3    4    3
 1.428736808684749e-11    5    3    4    4
 0.02655454720650648    5    3    5    2
 0.0197667302854305    5    3    5    3
 9.629578544773705e-12    5    3    5    4
 1.704298299167427e-11    5    3    5    5
 -0.02324029482457148    5    3    6    1
 2.482854857462744e-15    5    3    6    4
 3.84109418184799e-15    5    3    6    5
 7.336156218199253e-12    5    3    6    6
 -0.004610853261928882    5    4    2    2
 0.01618324866585076    5    4    3    2
 0.004610853261929039    5    4    3    3
 9.581903974657921e-12    5    4    4    2
 1.33702338454749e-12    5    4    4    3
 -1.346388069215743e-12    5    4    5    2
 9.629578763705253e-12    5    4    5    3
 0.01779934996791243    5    4    5    4
 1.151006126070491e-15    5    4    6    1
 2.288862626606025e-15    5    4    6    3
 0.4244990408047677    5    5    1    1
 0.44550428288563    5    5    2    2
 0.004610853261928951    5    5    3    2
 0.4131377855539282    5    5    3    3
 -1.435786665985271e-11    5    5    4    2
 1.027910748923972e-10    5    5    4    3
 0.4191789385259205    5    5    4    4
 1.220164260021294e-10    5    5    5    2
 1.704298239451604e-11    5    5    5    3
 0.4547776384617447    5    5    5    5
 -9.526744637186216e-11    5    5    6    1
 1.051901312999836e-15    5    5    6    2
 0.4376732244220692    5    5    6    6
 8.554470787335358e-11    6    1    1    1
 -2.849286015602522e-14    6    1    2    1
 1.32590294483776e-10    6    1    2    2
 -4.15581714236322e-15    6    1    3    1
 6.520207381551912e-14    6    1    3    2
 1.321246204580567e-10    6    1    3    3
 0.02324029482457145    6    1    4    2
 -0.166384502080874    6    1    4    3
 -9.481531172140492e-11    6    1    4    4
 -1.472836112045471e-15    6    1    5    1
 -0.1663845020808739    6    1    5    2
 -0.02324029482457147    6    1    5    3
 1.152208753754658e-15    6    1    5    4
 -9.526748963003314e-11    6    1    5    5
 0.1899232476547826    6    1    6    1
 -1.342435390983587e-15    6    1    6    2
 -2.618227886261967e-14    6    1    6    5
 -5.445623441654827e-11    6    1    6    6
 -8.02469765459107e-15    6    2    1    1
 1.17395946407999e-11    6    2    2    1
 -4.034393913250064e-15    6    2    2    2
 5.641819893647193e-15    6    2    3    1
 -3.444532112194388e-15    6    2    3    3
 0.001833502218493465    6    2    4    1
 1.31723759402969e-15    6    2    4    3
 -3.513211898030549e-15    6    2    4    4
 -0.01312661289329567    6    2    5    1
 1.428145015460065e-15    6    2    5    2
 1.05190131299984e-15    6    2    5    5
 -1.342435390983585e-15    6    2    6    1
 0.01906078540698034    6    2    6    2
 -6.745577065133367e-13    6    2    6    4
 4.825181669965064e-12    6    2    6    5
 -4.149922757336716e-15    6    2    6    6
 -1.293045876610176e-15    6    3    1    1
 5.65854206287691e-15    6    3    2    1
 1.169912342089937e-11    6    3    3    1
 -0.0131266128932957    6    3    4    1
 -0.001833502218493463    6    3    5    1
 2.288862626606024e-15    6    3    5    4
 0.01906078540698035    6    3    6    3
 4.829203733070267e-12    6    3    6    4
 6.739505761666344e-13    6    3    6    5
 0.002227287316431847    6    4    2    1
 -0.01594584293929638    6    4    3    1
 -7.475392538747562e-12    6    4    4    1
 2.482854857462744e-15    6    4    5    3
 -6.745581368060739e-13    6    4    6    2
 4.82920467920607e-12    6    4    6    3
 0.02039675088976791    6    4    6    4
 -0.01594584293929635    6    5    2    1
 -0.002227287316431845    6    5    3    1
 -3.555427396416651e-15    6    5    4    2
 2.549879914289357e-14    6    5    4    3
 -7.515977802543714e-12    6    5    5    1
 2.752040642803239e-14    6    5    5    2
 3.841094181847988e-15    6    5    5    3
 -2.618227886261966e-14    6    5    6    1
 4.825183303044586e-12    6    5    6    2
 6.739504973925703e-13    6    5    6    3
 0.02039675088976785    6    5    6    5
 0.4753233416487158    6    6    1    1
 0.4332903633161179    6    6    2    2
 0.4332903633161177    6    6    3    3
 -7.33983825392079e-12    6    6    4    2
 5.254823229098586e-11    6    6    4    3
 0.4376732244220699    6    6    4    4
 -3.712974840253396e-15    6    6    5    1
 5.252219183659798e-11    6    6    5    2
 7.336131425138336e-12    6    6    5    3
 0.4376732244220692    6    6    5    5
 -5.445628122697707e-11    6    6    6    1
 -4.149922757336716e-15    6    6    6    2
 0.498328184209065    6    6    6    6
 -2.573491616655124    1    1  0  0
 1.347754602304781e-15    2    1  0  0
 -2.45220242147178    2    2  0  0
 -2.452202421471778    3    3  0  0
 2.055528410853315e-12    4    2  0  0
 -1.471495743173946e-11    4    3  0  0
 -2.417886870371406    4    4  0  0
 6.702994315652921e-15    5    1  0  0
 -1.467623060840556e-11    5    2  0  0
 -2.049593053209711e-12    5    3  0  0
 -2.417886870371402    5    5  0  0
 1.452896743886489e-11    6    1  0  0
 7.221748635179011e-15    6    2  0  0
 1.389547176759592e-15    6    3  0  0
 -2.444121248202664    6    6  0  0
 -99.56140290922315  0  0  0  0
