 &FCI NORB=   6,NELEC= 6,MS2=0,
  ORBSYM=1,1,1,1,1,1,
  ISYM=1,
 &END
 0.5406490203162162    1    1    1    1
 0.4718212758530183    1    1    2    2
 0.4718212758530191    1    1    3    3
 -8.089858535668959e-14    1    1    4    2
 8.21457024581182e-14    1    1    4    3
 0.4724601456310406    1    1    4    4
 8.181996746792208e-14    1    1    5    2
 8.087909682263916e-14    1    1    5    3
 0.4724601456310407    1    1    5    5
 -9.255877314595651e-14    1    1    6    1
 0.474677834351311    1    1    6    6
 0.02088073432099949    2    1    2    1
 -2.029275980678968e-14    2    1    4    1
 2.051517251234651e-14    2    1    5    1
 1.606997006168079e-14    2    1    6    2
 0.003691541515699817    2    1    6    4
 -0.003738862728543192    2    1    6    5
 0.4718212758530183    2    2    1    1
 0.5084608641065933    2    2    2    2
 0.4699397708374635    2    2    3    3
 6.913833925942942e-14    2    2    4    2
 -5.834886745862203e-14    2    2    4    3
 0.4709405765305407    2    2    4    4
 -7.006355673584708e-14    2    2    5    2
 -5.801902605269763e-14    2    2    5    3
 -0.01759316273562139    2    2    5    4
 0.4713887694088549    2    2    5    5
 8.646555624487976e-14    2    2    6    1
 0.4550867663981434    2    2    6    6
 0.02088073432099954    3    1    3    1
 2.056999118763388e-14    3    1    4    1
 2.027896640188304e-14    3    1    5    1
 1.605212138341625e-14    3    1    6    3
 -0.003738862728543182    3    1    6    4
 -0.003691541515699815    3    1    6    5
 0.0192605466345654    3    2    3    2
 -5.114616175516066e-15    3    2    4    2
 4.978573578582842e-15    3    2    4    3
 -0.01759316273562147    3    2    4    4
 -6.236590088218481e-15    3    2    5    2
 -6.22630541417292e-15    3    2    5    3
 0.0002240964391570134    3    2    5    4
 0.01759316273562132    3    2    5    5
 0.4718212758530191    3    3    1    1
 0.4699397708374636    3    3    2    2
 0.5084608641065952    3    3    3    3
 5.724203256578589e-14    3    3    4    2
 -6.923939029003685e-14    3    3    4    3
 0.4713887694088558    3    3    4    4
 -5.820344206597383e-14    3    3    5    2
 -6.8437876893368e-14    3    3    5    3
 0.01759316273562138    3    3    5    4
 0.4709405765305418    3    3    5    5
 8.607784693141537e-14    3    3    6    1
 0.4550867663981443    3    3    6    6
 -2.029600071709481e-14    4    1    2    1
 2.057258189013141e-14    4    1    3    1
 0.02848210691485854    4    1    4    1
 -0.000568487344712125    4    1    6    2
 0.0005757746826774343    4    1    6    3
 1.469763651641094e-14    4    1    6    4
 -8.094030316265467e-14    4    2    1    1
 6.912710421441703e-14    4    2    2    2
 -5.100845960892553e-15    4    2    3    2
 5.720101584234805e-14    4    2    3    3
 0.08908086459839099    4    2    4    2
 -0.07506789171177297    4    2    4    3
 -3.361618651916517e-14    4    2    4    4
 -0.07506789171177289    4    2    5    2
 -0.05915471336734146    4    2    5    3
 3.816481432641385e-15    4    2    5    4
 -2.737886957079882e-14    4    2    5    5
 0.06165219801161894    4    2    6    1
 -2.048270810946837e-15    4    2    6    6
 8.216008534496364e-14    4    3    1    1
 -5.831199780849394e-14    4    3    2    2
 4.975647715024789e-15    4    3    3    2
 -6.917315570169336e-14    4    3    3    3
 -0.07506789171177299    4    3    4    2
 0.09099324925377458    4    3    4    3
 3.425430413025723e-14    4    3    4    4
 0.06106709802272488    4    3    5    2
 0.07506789171177303    4    3    5    3
 3.366601905563892e-15    4    3    5    4
 2.779151691764681e-14    4    3    5    5
 -0.06244250655127975    4    3    6    1
 2.259338284859428e-15    4    3    6    6
 0.4724601456310406    4    4    1    1
 0.4709405765305408    4    4    2    2
 -0.01759316273562145    4    4    3    2
 0.4713887694088557    4    4    3    3
 -3.359938466774431e-14    4    4    4    2
 3.41786806647669e-14    4    4    4    3
 0.4862206555434587    4    4    4    4
 2.684137634378914e-14    4    4    5    2
 2.645344880647382e-14    4    4    5    3
 0.4489726416029355    4    4    5    5
 -4.638643817309517e-15    4    4    6    1
 0.4418979034554642    4    4    6    6
 2.05179757156571e-14    5    1    2    1
 2.028083479431575e-14    5    1    3    1
 0.02848210691485854    5    1    5    1
 0.0005757746826774335    5    1    6    2
 0.0005684873447121271    5    1    6    3
 1.46705296489189e-14    5    1    6    5
 8.18426778479028e-14    5    2    1    1
 -7.001753235362507e-14    5    2    2    2
 -6.235138273746887e-15    5    2    3    2
 -5.821441961297025e-14    5    2    3    3
 -0.07506789171177289    5    2    4    2
 0.0610670980227249    5    2    4    3
 2.678369520002613e-14    5    2    4    4
 0.09099324925377439    5    2    5    2
 0.07506789171177294    5    2    5    3
 -3.904455121576163e-15    5    2    5    4
 3.50237688243743e-14    5    2    5    5
 -0.06244250655127977    5    2    6    1
 2.072591495306405e-15    5    2    6    6
 8.09193718059683e-14    5    3    1    1
 -5.797860564045465e-14    5    3    2    2
 -6.22337468017542e-15    5    3    3    2
 -6.844880023025579e-14    5    3    3    3
 -0.05915471336734147    5    3    4    2
 0.07506789171177305    5    3    4    3
 2.640483479306915e-14    5    3    4    4
 0.07506789171177296    5    3    5    2
 0.08908086459839115    5    3    5    3
 3.543398010446598e-15    5    3    5    4
 3.464896013334606e-14    5    3    5    5
 -0.06165219801161907    5    3    6    1
 2.189929691407625e-15    5    3    6    6
 -0.01759316273562139    5    4    2    2
 0.0002240964391570152    5    4    3    2
 0.01759316273562138    5    4    3    3
 3.814663699936577e-15    5    4    4    2
 3.366461298094647e-15    5    4    4    3
 -3.906637078448291e-15    5    4    5    2
 3.54243027530436e-15    5    4    5    3
 0.01862400697026165    5    4    5    4
 0.4724601456310407    5    5    1    1
 0.471388769408855    5    5    2    2
 0.0175931627356213    5    5    3    2
 0.4709405765305418    5    5    3    3
 -2.736167141383777e-14    5    5    4    2
 2.778949081483698e-14    5    5    4    3
 0.4489726416029355    5    5    4    4
 3.497267579699592e-14    5    5    5    2
 3.464242781525684e-14    5    5    5    3
 0.4862206555434589    5    5    5    5
 -5.349893957364939e-15    5    5    6    1
 0.4418979034554641    5    5    6    6
 -9.257384355615406e-14    6    1    1    1
 8.645525701594936e-14    6    1    2    2
 8.595535849927061e-14    6    1    3    3
 0.06165219801161895    6    1    4    2
 -0.06244250655127981    6    1    4    3
 -4.598648332097155e-15    6    1    4    4
 -0.06244250655127973    6    1    5    2
 -0.06165219801161901    6    1    5    3
 -5.38633672169872e-15    6    1    5    5
 0.08596030940553701    6    1    6    1
 1.670235130757369e-14    6    1    6    6
 1.606809203893308e-14    6    2    2    1
 -0.0005684873447121272    6    2    4    1
 0.0005757746826774361    6    2    5    1
 0.0249830292227636    6    2    6    2
 1.60503131187775e-14    6    3    3    1
 0.0005757746826774374    6    3    4    1
 0.0005684873447121281    6    3    5    1
 0.02498302922276362    6    3    6    3
 0.00369154151569982    6    4    2    1
 -0.003738862728543182    6    4    3    1
 1.468488111042189e-14    6    4    4    1
 0.02675544325041845    6    4    6    4
 -0.003738862728543193    6    5    2    1
 -0.003691541515699817    6    5    3    1
 1.46577496452913e-14    6    5    5    1
 0.02675544325041847    6    5    6    5
 0.4746778343513111    6    6    1    1
 0.4550867663981434    6    6    2    2
 0.4550867663981442    6    6    3    3
 -2.043497478437101e-15    6    6    4    2
 2.213886626106776e-15    6    6    4    3
 0.4418979034554639    6    6    4    4
 1.988860465207409e-15    6    6    5    2
 2.009460306484634e-15    6    6    5    3
 0.4418979034554641    6    6    5    5
 1.681293992916721e-14    6    6    6    1
 0.4661845514511928    6    6    6    6
 -2.974587337285606    1    1  0  0
 -2.85898933334343    2    2  0  0
 -2.858989333343435    3    3  0  0
 2.238470910367885e-13    4    2  0  0
 -2.276363234195167e-13    4    3  0  0
 -2.575903830198762    4    4  0  0
 -2.277275590323313e-13    5    2  0  0
 -2.245217900487262e-13    5    3  0  0
 -2.575903830198764    5    5  0  0
 6.893444148836636e-14    6    1  0  0
 -2.2455340163326    6    6  0  0
 -98.46644200026698  0  0  0  0
