 &FCI NORB=   6,NELEC= 6,MS2=0,
  ORBSYM=1,1,1,1,1,1,
  ISYM=1,
 &END
 0.4531640459509735    1    1    1    1
 0.408260210263808    1    1    2    2
 0.4082602102638072    1    1    3    3
 -5.872393188689649e-11    1    1    4    2
 -1.450726461281533e-09    1    1    4    3
 0.4118140386364621    1    1    4    4
 2.744461420549064e-15    1    1    5    1
 -1.454202517386252e-09    1    1    5    2
 5.885745246207575e-11    1    1    5    3
 0.4118140386364624    1    1    5    5
 1.656433421985204e-09    1    1    6    1
 -7.942842205618364e-14    1    1    6    2
 3.65517906273946e-15    1    1    6    3
 -2.084556484746749e-15    1    1    6    5
 0.4609967093450438    1    1    6    6
 0.01792379236224851    2    1    2    1
 -4.207011493548416e-12    2    1    4    1
 1.35561856232814e-14    2    1    4    2
 3.074185392700359e-13    2    1    4    3
 -1.036868163020324e-10    2    1    5    1
 3.337012893994743e-13    2    1    5    2
 -1.369943328274435e-14    2    1    5    3
 1.696076742076877e-15    2    1    5    5
 -3.190543430342021e-13    2    1    6    1
 2.056423202980383e-10    2    1    6    2
 -3.111793718955556e-13    2    1    6    3
 -0.0006669431181675735    2    1    6    4
 -0.01647727969979614    2    1    6    5
 -2.516502941330531e-15    2    1    6    6
 0.4082602102638081    2    2    1    1
 0.4317139245709147    2    2    2    2
 0.3993327323898792    2    2    3    3
 2.04388834793543e-15    2    2    4    1
 -1.169144598003535e-10    2    2    4    2
 -2.468317505707182e-09    2    2    4    3
 0.4040001567960437    2    2    4    4
 5.714350394316068e-14    2    2    5    1
 -2.892321634941823e-09    2    2    5    2
 1.007179835036808e-10    2    2    5    3
 0.001352663231505923    2    2    5    4
 0.4373638634147163    2    2    5    5
 2.405352750879888e-09    2    2    6    1
 -3.409996043663492e-14    2    2    6    2
 1.363343986652427e-15    2    2    6    3
 2.175600837528744e-15    2    2    6    5
 0.4213986306104619    2    2    6    6
 0.01792379236224847    3    1    3    1
 -1.03939934332574e-10    3    1    4    1
 2.673005426160526e-14    3    1    4    2
 -1.537105260010092e-14    3    1    4    3
 4.197025193981663e-12    3    1    5    1
 -1.522559986528507e-14    3    1    5    2
 1.091377976105453e-15    3    1    5    4
 1.465096746508069e-14    3    1    6    1
 -3.112171885285187e-13    3    1    6    2
 1.977995782539066e-10    3    1    6    3
 -0.01647727969979612    3    1    6    4
 0.0006669431181675762    3    1    6    5
 0.01619059609051735    3    2    3    2
 2.595930677167871e-14    3    2    4    1
 -2.098377679602818e-10    3    2    4    2
 -4.052891105852852e-12    3    2    4    3
 0.001352663231506018    3    2    4    4
 -2.246298916983652e-15    3    2    5    1
 1.261531723747084e-11    3    2    5    2
 -2.019613026112371e-10    3    2    5    3
 0.01668185330933611    3    2    5    4
 -0.001352663231505976    3    2    5    5
 -3.610099993004163e-12    3    2    6    1
 -2.333023906539993e-15    3    2    6    3
 1.049851935881601e-15    3    2    6    4
 0.4082602102638072    3    3    1    1
 0.3993327323898791    3    3    2    2
 0.431713924570913    3    3    3    3
 -2.453220042229964e-15    3    3    4    1
 -9.539611041247417e-11    3    3    4    2
 -2.776409269030872e-09    3    3    4    3
 0.4373638634147151    3    3    4    4
 5.223590480258746e-15    3    3    5    1
 -2.376815253550881e-09    3    3    5    2
 1.125360093791496e-10    3    3    5    3
 -0.001352663231506047    3    3    5    4
 0.4040001567960433    3    3    5    5
 2.314351026904027e-09    3    3    6    1
 -2.943618977821741e-14    3    3    6    2
 1.576888778765402e-15    3    3    6    3
 0.421398630610461    3    3    6    6
 -4.207010970721113e-12    4    1    2    1
 2.043888347935454e-15    4    1    2    2
 -1.039399348873188e-10    4    1    3    1
 2.595930677167871e-14    4    1    3    2
 -2.453220042229945e-15    4    1    3    3
 0.0164280815078247    4    1    4    1
 1.078568952377831e-15    4    1    5    3
 1.757752976509341e-15    4    1    5    4
 -0.00058168889480326    4    1    6    2
 -0.01437101659324772    4    1    6    3
 -1.466152789927617e-10    4    1    6    4
 -6.672226756287893e-15    4    1    6    5
 -5.872392849031144e-11    4    2    1    1
 1.355618562328138e-14    4    2    2    1
 -1.169144816635444e-10    4    2    2    2
 2.673005426160527e-14    4    2    3    1
 -2.098377642898101e-10    4    2    3    2
 -9.539610724753557e-11    4    2    3    3
 0.0165315964728173    4    2    4    2
 0.00820908716071969    4    2    4    3
 9.148453440518912e-11    4    2    4    4
 0.008209087160719693    4    2    5    2
 0.01586704573531327    4    2    5    3
 1.699330187327186e-10    4    2    5    4
 8.136857582191526e-11    4    2    5    5
 -0.007212711180602486    4    2    6    1
 -3.431025066357999e-15    4    2    6    4
 1.148115888355103e-14    4    2    6    5
 4.26330708554715e-11    4    2    6    6
 -1.450726475420198e-09    4    3    1    1
 3.074185392700359e-13    4    3    2    1
 -2.468317534134455e-09    4    3    2    2
 -1.537105260010091e-14    4    3    3    1
 -4.052888587412142e-12    4    3    3    2
 -2.776409298965016e-09    4    3    3    3
 0.008209087160719686    4    3    4    2
 0.2190103578215882    4    3    4    3
 2.260313421972642e-09    4    3    4    4
 1.216500634780757e-14    4    3    5    1
 0.186611715613458    4    3    5    2
 -0.008209087160719681    4    3    5    3
 -6.794568552947631e-12    4    3    5    4
 2.010026586437217e-09    4    3    5    5
 -0.1781948959053097    4    3    6    1
 1.139171818815736e-14    4    3    6    2
 -1.469540291785746e-15    4    3    6    4
 2.869439287017467e-13    4    3    6    5
 1.053383261248815e-09    4    3    6    6
 0.411814038636462    4    4    1    1
 0.4040001567960437    4    4    2    2
 0.001352663231506023    4    4    3    2
 0.4373638634147151    4    4    3    3
 9.1484516855937e-11    4    4    4    2
 2.260313432616459e-09    4    4    4    3
 0.444963201748364    4    4    4    4
 8.100597265444334e-15    4    4    5    1
 1.915253064235848e-09    4    4    5    2
 -7.751321605403327e-11    4    4    5    3
 0.4099007146905389    4    4    5    5
 -1.788711597465012e-09    4    4    6    1
 -2.986202762894863e-14    4    4    6    2
 1.123570325367549e-15    4    4    6    3
 0.4259024889126352    4    4    6    6
 2.744461420549148e-15    5    1    1    1
 -1.036868164757359e-10    5    1    2    1
 5.714350394316064e-14    5    1    2    2
 4.19702595059007e-12    5    1    3    1
 -2.246298916983651e-15    5    1    3    2
 5.223590480258716e-15    5    1    3    3
 1.216500634780757e-14    5    1    4    3
 8.100597265444372e-15    5    1    4    4
 0.01642808150782473    5    1    5    1
 1.32229385746153e-14    5    1    5    2
 1.161573638660804e-14    5    1    5    5
 -1.255245831017052e-14    5    1    6    1
 -0.01437101659324773    5    1    6    2
 0.0005816888948032577    5    1    6    3
 -6.713401874886872e-15    5    1    6    4
 -1.542213222044214e-10    5    1    6    5
 -4.094053041835749e-14    5    1    6    6
 -1.454202494951429e-09    5    2    1    1
 3.337012893994743e-13    5    2    2    1
 -2.892321673670711e-09    5    2    2    2
 -1.522559986528507e-14    5    2    3    1
 1.261531965045595e-11    5    2    3    2
 -2.376815315364381e-09    5    2    3    3
 0.008209087160719693    5    2    4    2
 0.1866117156134581    5    2    4    3
 1.915253089594161e-09    5    2    4    4
 1.322293857461535e-14    5    2    5    1
 0.219010357821589    5    2    5    2
 -0.0082090871607197    5    2    5    3
 7.308370664834037e-12    5    2    5    4
 2.361809410944837e-09    5    2    5    5
 -0.17819489590531    5    2    6    1
 1.234074642742644e-14    5    2    6    2
 3.099154061221528e-13    5    2    6    5
 1.04927377497471e-09    5    2    6    6
 5.885746589748344e-11    5    3    1    1
 -1.369943328274436e-14    5    3    2    1
 1.00717970057721e-10    5    3    2    2
 -2.019613007075306e-10    5    3    3    2
 1.125360022363325e-10    5    3    3    3
 1.078568952377828e-15    5    3    4    1
 0.01586704573531326    5    3    4    2
 -0.00820908716071969    5    3    4    3
 -7.751321176868183e-11    5    3    4    4
 -0.008209087160719705    5    3    5    2
 0.01653159647281727    5    3    5    3
 1.78488547301776e-10    5    3    5    4
 -9.560310723049876e-11    5    3    5    5
 0.007212711180602488    5    3    6    1
 2.640195533206919e-14    5    3    6    4
 -1.252446688192999e-14    5    3    6    5
 -4.247525166840242e-11    5    3    6    6
 0.001352663231505924    5    4    2    2
 1.091377976105453e-15    5    4    3    1
 0.01668185330933611    5    4    3    2
 -0.001352663231506065    5    4    3    3
 1.757752976509338e-15    5    4    4    1
 1.699330211965257e-10    5    4    4    2
 -6.794564874283541e-12    5    4    4    3
 7.30837427107681e-12    5    4    5    2
 1.784885496522924e-10    5    4    5    3
 0.01753124352891284    5    4    5    4
 -7.366444434443893e-14    5    4    6    1
 2.484102861906714e-14    5    4    6    3
 0.4118140386364625    5    5    1    1
 1.696076742076841e-15    5    5    2    1
 0.4373638634147163    5    5    2    2
 -0.001352663231505957    5    5    3    2
 0.4040001567960433    5    5    3    3
 8.13685522671466e-11    5    5    4    2
 2.010026603247433e-09    5    5    4    3
 0.4099007146905389    5    5    4    4
 1.1615736386608e-14    5    5    5    1
 2.361809389144539e-09    5    5    5    2
 -9.560309461616648e-11    5    5    5    3
 0.444963201748365    5    5    5    5
 -1.875120195340299e-09    5    5    6    1
 1.982018410353281e-14    5    5    6    2
 0.4259024889126355    5    5    6    6
 1.656433401642861e-09    6    1    1    1
 -3.190543430342021e-13    6    1    2    1
 2.405352763402109e-09    6    1    2    2
 1.46509674650807e-14    6    1    3    1
 -3.610110657409262e-12    6    1    3    2
 2.314351016927986e-09    6    1    3    3
 -0.007212711180602491    6    1    4    2
 -0.1781948959053097    6    1    4    3
 -1.788711590831687e-09    6    1    4    4
 -1.255245831017057e-14    6    1    5    1
 -0.17819489590531    6    1    5    2
 0.007212711180602472    6    1    5    3
 -7.365665355744087e-14    6    1    5    4
 -1.875120231620624e-09    6    1    5    5
 0.2010591763210287    6    1    6    1
 -1.168616895055239e-14    6    1    6    2
 1.532301507312384e-15    6    1    6    4
 -2.948547555224688e-13    6    1    6    5
 -1.115411691422806e-09    6    1    6    6
 -7.942842205618353e-14    6    2    1    1
 2.056423192926225e-10    6    2    2    1
 -3.409996043663487e-14    6    2    2    2
 -3.112170470749393e-13    6    2    3    1
 -2.943618977821747e-14    6    2    3    3
 -0.0005816888948032604    6    2    4    1
 1.139171818815739e-14    6    2    4    3
 -2.986202762894856e-14    6    2    4    4
 -0.01437101659324773    6    2    5    1
 1.234074642742647e-14    6    2    5    2
 1.982018410353283e-14    6    2    5    5
 -1.168616895055237e-14    6    2    6    1
 0.01831095880076579    6    2    6    2
 3.810851221581644e-12    6    2    6    4
 9.361528258674184e-11    6    2    6    5
 -3.500219215034495e-14    6    2    6    6
 3.655179062739476e-15    6    3    1    1
 -3.111794577173245e-13    6    3    2    1
 1.363343986652447e-15    6    3    2    2
 1.977995754538156e-10    6    3    3    1
 -2.33302390654e-15    6    3    3    2
 1.57688877876539e-15    6    3    3    3
 -0.01437101659324771    6    3    4    1
 1.123570325367564e-15    6    3    4    4
 0.0005816888948032574    6    3    5    1
 2.484102861906714e-14    6    3    5    4
 0.01831095880076575    6    3    6    3
 9.41672293866048e-11    6    3    6    4
 -3.789950966517149e-12    6    3    6    5
 1.627808319842389e-15    6    3    6    6
 -0.0006669431181675731    6    4    2    1
 -0.01647727969979611    6    4    3    1
 1.049851935881599e-15    6    4    3    2
 -1.466152783063424e-10    6    4    4    1
 -3.431025066358004e-15    6    4    4    2
 -1.469540291785759e-15    6    4    4    3
 -6.714013266274917e-15    6    4    5    1
 2.640195533206918e-14    6    4    5    3
 1.532301507312394e-15    6    4    6    1
 3.81085253956491e-12    6    4    6    2
 9.416723162954804e-11    6    4    6    3
 0.01943861826126081    6    4    6    4
 -2.084556484746756e-15    6    5    1    1
 -0.01647727969979614    6    5    2    1
 2.175600837528687e-15    6    5    2    2
 0.0006669431181675759    6    5    3    1
 -6.672544814715085e-15    6    5    4    1
 1.148115888355103e-14    6    5    4    2
 2.869439287017466e-13    6    5    4    3
 -1.542213224957004e-10    6    5    5    1
 3.099154061221527e-13    6    5    5    2
 -1.252446688192998e-14    6    5    5    3
 -2.948547555224687e-13    6    5    6    1
 9.361528317881787e-11    6    5    6    2
 -3.789950897060447e-12    6    5    6    3
 0.01943861826126082    6    5    6    5
 0.4609967093450438    6    6    1    1
 -2.51650294133051e-15    6    6    2    1
 0.421398630610462    6    6    2    2
 0.4213986306104611    6    6    3    3
 4.2633058396107e-11    6    6    4    2
 1.05338326322551e-09    6    6    4    3
 0.4259024889126352    6    6    4    4
 -4.094053041835758e-14    6    6    5    1
 1.049273706406826e-09    6    6    5    2
 -4.247527701876095e-11    6    6    5    3
 0.4259024889126356    6    6    5    5
 -1.115411744779106e-09    6    6    6    1
 -3.500219215034491e-14    6    6    6    2
 1.627808319842384e-15    6    6    6    3
 0.482100621200979    6    6    6    6
 -2.480457876014139    1    1  0  0
 6.162465074653985e-15    2    1  0  0
 -2.384542632356141    2    2  0  0
 -2.384542632356137    3    3  0  0
 -6.606522241162788e-14    4    2  0  0
 -1.915910301502483e-12    4    3  0  0
 -2.368163073792375    4    4  0  0
 4.804900580856379e-14    5    1  0  0
 7.101681371332429e-12    5    2  0  0
 -2.762410932595147e-13    5    3  0  0
 -2.368163073792378    5    5  0  0
 5.732975715249522e-11    6    1  0  0
 7.471286156574366e-14    6    2  0  0
 -3.398258368263543e-15    6    3  0  0
 -2.400928508515229    6    6  0  0
 -99.76784531695922  0  0  0  0
