 &FCI NORB=   6,NELEC= 6,MS2=0,
  ORBSYM=1,1,1,1,1,1,
  ISYM=1,
 &END
 0.4988307804160309    1    1    1    1
 0.4407979419269291    1    1    2    2
 0.4407979419269292    1    1    3    3
 -5.893614589413954e-14    1    1    4    2
 6.199847493032484e-14    1    1    4    3
 0.445934420644962    1    1    4    4
 -5.751767741561317e-14    1    1    5    2
 -5.63108994112646e-14    1    1    5    3
 0.4459344206449618    1    1    5    5
 1.022691046431712e-13    1    1    6    1
 2.148262423273623e-15    1    1    6    2
 -1.465257050151615e-15    1    1    6    3
 0.4952016960060945    1    1    6    6
 0.01970353749957231    2    1    2    1
 1.825081808880116e-15    2    1    4    1
 -4.80863144313837e-15    2    1    4    2
 4.931139619131418e-15    2    1    4    3
 2.216139219338298e-15    2    1    5    1
 -5.054912070595623e-15    2    1    5    2
 -4.15980470943746e-15    2    1    5    3
 6.392642369923685e-15    2    1    6    1
 2.303244017476277e-14    2    1    6    2
 -2.522604830271669e-15    2    1    6    3
 -0.009850418039647696    2    1    6    4
 -0.01020782600091229    2    1    6    5
 0.440797941926929    2    2    1    1
 0.4603326350678275    2    2    2    2
 0.4265129230831046    2    2    3    3
 -1.679855256633833e-13    2    2    4    2
 1.530424550109932e-13    2    2    4    3
 0.4442207933908264    2    2    4    4
 -1.715654290997907e-13    2    2    5    2
 -1.355225000688846e-13    2    2    5    3
 0.0170447371130398    2    2    5    4
 0.4454360262945661    2    2    5    5
 2.123024613809024e-13    2    2    6    1
 1.393048043939141e-15    2    2    6    2
 0.4538036315719471    2    2    6    6
 0.01970353749957231    3    1    3    1
 -1.807152083638803e-15    3    1    4    1
 3.573510766727477e-15    3    1    4    2
 -3.46209098562806e-15    3    1    4    3
 2.06321954735896e-15    3    1    5    1
 2.816433866318152e-15    3    1    5    2
 3.444923179390852e-15    3    1    5    3
 -4.470676439850435e-15    3    1    6    1
 -2.518398676413841e-15    3    1    6    2
 2.45440752894653e-14    3    1    6    3
 0.01020782600091229    3    1    6    4
 -0.009850418039647696    3    1    6    5
 0.01690985599236147    3    2    3    2
 3.936561608980306e-14    3    2    4    2
 -4.129824161412578e-14    3    2    4    3
 -0.01704473711303998    3    2    4    4
 1.426606374036889e-14    3    2    5    2
 1.135456707871102e-14    3    2    5    3
 -0.0006076164518699917    3    2    5    4
 0.01704473711303961    3    2    5    5
 -3.09150841084906e-14    3    2    6    1
 0.4407979419269291    3    3    1    1
 0.4265129230831046    3    3    2    2
 0.4603326350678276    3    3    3    3
 -1.61578758185732e-13    3    3    4    2
 1.924130885004594e-13    3    3    4    3
 0.4454360262945666    3    3    4    4
 -1.548098705706023e-13    3    3    5    2
 -1.830914434820807e-13    3    3    5    3
 -0.0170447371130398    3    3    5    4
 0.444220793390826    3    3    5    5
 2.307404933727117e-13    3    3    6    1
 1.14851928044504e-15    3    3    6    2
 0.453803631571947    3    3    6    6
 1.822062362570089e-15    4    1    2    1
 -1.807751961359389e-15    4    1    3    1
 0.02053810369007662    4    1    4    1
 -0.006844894017195373    4    1    6    2
 0.00709325095046574    4    1    6    3
 -3.446400879524719e-15    4    1    6    4
 1.013377124385319e-15    4    1    6    6
 -5.893620632792331e-14    4    2    1    1
 -4.808631443138369e-15    4    2    2    1
 -1.680021817192581e-13    4    2    2    2
 3.573510766727477e-15    4    2    3    1
 3.936126869320128e-14    4    2    3    2
 -1.615925953159583e-13    4    2    3    3
 0.1012225484585531    4    2    4    2
 -0.08858743841067383    4    2    4    3
 1.311368277422814e-13    4    2    4    4
 0.08858743841067374    4    2    5    2
 0.06974888097778177    4    2    5    3
 6.168954507380225e-15    4    2    5    4
 6.319569205028128e-14    4    2    5    5
 -0.1012976311906232    4    2    6    1
 -5.221561013396935e-15    4    2    6    4
 -1.446898993143699e-15    4    2    6    5
 6.203914171906318e-14    4    2    6    6
 6.201570057602843e-14    4    3    1    1
 4.931139619131417e-15    4    3    2    1
 1.530560210906765e-13    4    3    2    2
 -3.462090985628061e-15    4    3    3    1
 -4.128419611379441e-14    4    3    3    2
 1.924408372998114e-13    4    3    3    3
 -0.08858743841067382    4    3    4    2
 0.1075385373353972    4    3    4    3
 -1.346876711723344e-13    4    3    4    4
 -0.07606486985462581    4    3    5    2
 -0.08858743841067371    4    3    5    3
 1.851252170222834e-14    4    3    5    4
 -6.703964847887451e-14    4    3    5    5
 0.1049730670654308    4    3    6    1
 5.467003755976273e-15    4    3    6    4
 -6.345120393250244e-14    4    3    6    6
 0.4459344206449621    4    4    1    1
 0.4442207933908264    4    4    2    2
 -0.01704473711304001    4    4    3    2
 0.4454360262945665    4    4    3    3
 1.311344696025563e-13    4    4    4    2
 -1.346709473538238e-13    4    4    4    3
 0.4702432174037026    4    4    4    4
 1.143730428291093e-13    4    4    5    2
 1.119087224418173e-13    4    4    5    3
 0.4337893846966923    4    4    5    5
 -1.227359446115097e-13    4    4    6    1
 0.4549649797143946    4    4    6    6
 2.215884931060193e-15    5    1    2    1
 2.060275881720317e-15    5    1    3    1
 0.02053810369007658    5    1    5    1
 -0.007093250950465739    5    1    6    2
 -0.006844894017195368    5    1    6    3
 1.466312816914667e-15    5    1    6    5
 -5.749991644508692e-14    5    2    1    1
 -5.054912070595623e-15    5    2    2    1
 -1.715351900235737e-13    5    2    2    2
 2.816433866318152e-15    5    2    3    1
 1.426385864890939e-14    5    2    3    2
 -1.548510939700792e-13    5    2    3    3
 0.08858743841067372    5    2    4    2
 -0.07606486985462579    5    2    4    3
 1.14347225264877e-13    5    2    4    4
 0.1075385373353969    5    2    5    2
 0.0885874384106736    5    2    5    3
 8.598529687879131e-14    5    2    5    5
 -0.1049730670654307    5    2    6    1
 -5.151912811413445e-15    5    2    6    4
 6.756790655890137e-14    5    2    6    6
 -5.627062862940878e-14    5    3    1    1
 -4.159804709437457e-15    5    3    2    1
 -1.35461181659767e-13    5    3    2    2
 3.444923179390852e-15    5    3    3    1
 1.134850676973165e-14    5    3    3    2
 -1.831304002213908e-13    5    3    3    3
 0.06974888097778176    5    3    4    2
 -0.08858743841067371    5    3    4    3
 1.11927082727982e-13    5    3    4    4
 0.0885874384106736    5    3    5    2
 0.1012225484585529    5    3    5    3
 -1.348192018365158e-14    5    3    5    4
 8.190830347520005e-14    5    3    5    5
 -0.101297631190623    5    3    6    1
 -4.786288971221133e-15    5    3    6    4
 -1.140918215311933e-15    5    3    6    5
 6.451777210115066e-14    5    3    6    6
 0.01704473711303981    5    4    2    2
 -0.0006076164518699929    5    4    3    2
 -0.01704473711303981    5    4    3    3
 6.168159143442754e-15    5    4    4    2
 1.850812898936387e-14    5    4    4    3
 -1.347992796215964e-14    5    4    5    3
 0.01822691635350506    5    4    5    4
 7.455080450786374e-15    5    4    6    1
 0.4459344206449618    5    5    1    1
 0.445436026294566    5    5    2    2
 0.01704473711303963    5    5    3    2
 0.4442207933908262    5    5    3    3
 6.319158521103652e-14    5    5    4    2
 -6.702068912865788e-14    5    5    4    3
 0.4337893846966921    5    5    4    4
 8.594497048720548e-14    5    5    5    2
 8.186124168937589e-14    5    5    5    3
 0.4702432174037017    5    5    5    5
 -6.615982941108077e-14    5    5    6    1
 0.4549649797143942    5    5    6    6
 1.022093651034672e-13    6    1    1    1
 6.392642369923682e-15    6    1    2    1
 2.122520909031422e-13    6    1    2    2
 -4.470676439850434e-15    6    1    3    1
 -3.089859639850145e-14    6    1    3    2
 2.307502469265851e-13    6    1    3    3
 -0.1012976311906232    6    1    4    2
 0.1049730670654308    6    1    4    3
 -1.227575983572815e-13    6    1    4    4
 -0.1049730670654307    6    1    5    2
 -0.101297631190623    6    1    5    3
 7.455570449205196e-15    6    1    5    4
 -6.615870012065391e-14    6    1    5    5
 0.1633032080077425    6    1    6    1
 6.799540622506827e-15    6    1    6    4
 1.272524457494073e-15    6    1    6    5
 -6.868382815619634e-14    6    1    6    6
 2.148262423273624e-15    6    2    1    1
 2.303368787896272e-14    6    2    2    1
 1.393048043939141e-15    6    2    2    2
 -2.518806773422301e-15    6    2    3    1
 1.148519280445041e-15    6    2    3    3
 -0.006844894017195373    6    2    4    1
 -0.00709325095046574    6    2    5    1
 0.02118040445711658    6    2    6    2
 5.654276959837778e-15    6    2    6    4
 6.492053531044484e-15    6    2    6    5
 1.347113817994888e-15    6    2    6    6
 -1.465257050151616e-15    6    3    1    1
 -2.523674380250477e-15    6    3    2    1
 2.454389527029536e-14    6    3    3    1
 0.00709325095046574    6    3    4    1
 -0.006844894017195367    6    3    5    1
 0.02118040445711658    6    3    6    3
 -5.704800781075603e-15    6    3    6    4
 6.122770882964132e-15    6    3    6    5
 -0.009850418039647698    6    4    2    1
 0.01020782600091229    6    4    3    1
 -3.449415921460177e-15    6    4    4    1
 -5.221561013396933e-15    6    4    4    2
 5.467003755976274e-15    6    4    4    3
 -5.151912811413445e-15    6    4    5    2
 -4.786288971221134e-15    6    4    5    3
 6.799540622506826e-15    6    4    6    1
 5.651593559460876e-15    6    4    6    2
 -5.704339995152297e-15    6    4    6    3
 0.02276626476000552    6    4    6    4
 -0.01020782600091229    6    5    2    1
 -0.009850418039647693    6    5    3    1
 -1.446898993143699e-15    6    5    4    2
 1.467169089504926e-15    6    5    5    1
 -1.140918215311933e-15    6    5    5    3
 1.272524457494073e-15    6    5    6    1
 6.491115018538926e-15    6    5    6    2
 6.121334315085589e-15    6    5    6    3
 0.02276626476000548    6    5    6    5
 0.4952016960060945    6    6    1    1
 0.4538036315719471    6    6    2    2
 0.4538036315719473    6    6    3    3
 1.013377124385318e-15    6    6    4    1
 6.201229850802403e-14    6    6    4    2
 -6.346531915453479e-14    6    6    4    3
 0.4549649797143946    6    6    4    4
 6.759174010697189e-14    6    6    5    2
 6.452939328309469e-14    6    6    5    3
 0.4549649797143942    6    6    5    5
 -6.865319944482362e-14    6    6    6    1
 1.347113817994887e-15    6    6    6    2
 0.520392673588007    6    6    6    6
 -2.736736649702655    1    1  0  0
 -2.585194461649903    2    2  0  0
 1.098947322031307e-15    3    2  0  0
 -2.585194461649903    3    3  0  0
 -4.064289796861802e-15    4    1  0  0
 -1.302825035354171e-13    4    2  0  0
 1.351633648755124e-13    4    3  0  0
 -2.49554726736778    4    4  0  0
 -1.355378483058889e-13    5    2  0  0
 -1.313388552645969e-13    5    3  0  0
 -2.495547267367778    5    5  0  0
 1.018855139145458e-13    6    1  0  0
 -1.568531543587155e-15    6    2  0  0
 1.094491342397972e-15    6    3  0  0
 -2.485043327079984    6    6  0  0
 -99.17608951061378  0  0  0  0
