 &FCI NORB=   6,NELEC= 6,MS2=0,
  ORBSYM=1,1,1,1,1,1,
  ISYM=1,
 &END
 0.866514269596091    1    1    1    1
 0.5980709170378486    1    1    2    2
 -3.242033086038688e-15    1    1    3    2
 0.7133332882069806    1    1    3    3
 5.818696219295205e-15    1    1    4    1
 0.4241832391594305    1    1    4    4
 -1.891282269683714e-15    1    1    5    1
 -0.001489516930323037    1    1    5    4
 0.4462365664998009    1    1    5    5
 0.07596990672161438    1    1    6    1
 1.509832840349001e-15    1    1    6    4
 0.4568894007600846    1    1    6    6
 0.03172630025192343    2    1    2    1
 0.001338638910574389    2    1    4    3
 -0.01990947908204974    2    1    5    3
 -0.002212942007291086    2    1    6    2
 0.5980709170378486    2    2    1    1
 0.5809749136708755    2    2    2    2
 -8.415577262832485e-15    2    2    3    2
 0.623221542982302    2    2    3    3
 2.611409352648586e-15    2    2    4    1
 0.4161868241654714    2    2    4    4
 1.559733245337647e-15    2    2    5    1
 -1.193489751472043e-15    2    2    5    4
 0.4161868241654719    2    2    5    5
 0.0346599896397064    2    2    6    1
 -1.997872895766195e-15    2    2    6    4
 -1.804014159193998e-15    2    2    6    5
 0.3979501804472175    2    2    6    6
 0.02864798542058263    3    1    3    1
 0.0009016123208936263    3    1    4    2
 -0.01340961442339013    3    1    5    2
 0.003775234567478862    3    1    6    3
 -3.262337231954571e-15    3    2    1    1
 -8.420591697880231e-15    3    2    2    2
 0.1778197672347773    3    2    3    2
 2.1485092351059e-15    3    2    3    3
 0.004193187205970804    3    2    4    1
 -0.06236496810672596    3    2    5    1
 4.738830855499643e-15    3    2    5    4
 1.655386134972233e-15    3    2    6    1
 0.0358996795696743    3    2    6    4
 0.03151061475820076    3    2    6    5
 -5.447413335997137e-15    3    2    6    6
 0.7133332882069808    3    3    1    1
 0.6232215429823018    3    3    2    2
 2.146937141955796e-15    3    3    3    2
 0.7405076854330744    3    3    3    3
 4.911002160490341e-15    3    3    4    1
 0.4290926701414301    3    3    4    4
 -3.393552799879629e-15    3    3    5    1
 -1.082467449009528e-15    3    3    5    4
 0.4290926701414307    3    3    5    5
 0.06099887435179534    3    3    6    1
 1.047916975091025e-15    3    3    6    4
 0.4273553384550586    3    3    6    6
 5.928000738940689e-15    4    1    1    1
 2.622700868635943e-15    4    1    2    2
 0.004193187205970778    4    1    3    2
 4.967246353846662e-15    4    1    3    3
 0.004755173894787182    4    1    4    1
 1.200701389984966e-15    4    1    4    4
 -0.002181465393879038    4    1    5    1
 1.250319733002176e-15    4    1    6    1
 -0.0006153226770975232    4    1    6    4
 -0.001234381710729693    4    1    6    5
 1.356066452880118e-15    4    1    6    6
 0.0009016123208936272    4    2    3    1
 0.05151329398485148    4    2    4    2
 1.609171698996678e-15    4    2    5    3
 -1.867025434222738e-15    4    2    6    2
 0.01656746811807417    4    2    6    3
 0.00133863891057439    4    3    2    1
 0.02218056486136925    4    3    4    3
 1.588514470000022e-15    4    3    5    2
 0.008070605395572196    4    3    6    2
 0.4241832391594308    4    4    1    1
 0.4161868241654718    4    4    2    2
 0.42909267014143    4    4    3    3
 0.3773244839702178    4    4    4    4
 0.3431446268957966    4    4    5    5
 0.01361799389316578    4    4    6    1
 -1.186171386807766e-15    4    4    6    4
 1.234723315344383e-15    4    4    6    5
 0.3536157594792    4    4    6    6
 -1.890740168597471e-15    5    1    1    1
 1.443204281659964e-15    5    1    2    2
 -0.06236496810672597    5    1    3    2
 -3.378799338815754e-15    5    1    3    3
 -0.002181465393878954    5    1    4    1
 0.03705327634233919    5    1    5    1
 -1.999350121226207e-15    5    1    5    4
 -1.531784546210044e-15    5    1    6    1
 -0.01281042398882101    5    1    6    4
 -0.01471972812733361    5    1    6    5
 1.163479930016195e-15    5    1    6    6
 -0.01340961442339012    5    2    3    1
 1.609047239508914e-15    5    2    4    3
 0.05151329398485159    5    2    5    2
 -1.79149156894687e-15    5    2    6    2
 0.01454194331663067    5    2    6    3
 -0.01990947908204974    5    3    2    1
 1.619430846181067e-15    5    3    4    2
 0.02218056486136931    5    3    5    3
 0.00708389992706665    5    3    6    2
 -0.001489516930323336    5    4    1    1
 -1.090281032920222e-15    5    4    2    2
 4.644169574387586e-15    5    4    3    2
 -1.539775494330333e-15    5    4    3    3
 -1.464973975462414e-15    5    4    4    4
 -1.86499036700094e-15    5    4    5    1
 0.01708992853720954    5    4    5    4
 -1.038232000372119e-15    5    4    5    5
 -0.001974781565403581    5    4    6    1
 3.572591000973718e-15    5    4    6    4
 2.993756636907388e-15    5    4    6    5
 0.01573444298963293    5    4    6    6
 0.4462365664998004    5    5    1    1
 0.416186824165472    5    5    2    2
 0.4290926701414302    5    5    3    3
 0.3431446268957943    5    5    4    4
 -2.55351295663786e-15    5    5    5    4
 0.3773244839702163    5    5    5    5
 0.009651670617509493    5    5    6    1
 -1.402008934295318e-15    5    5    6    5
 0.3495004533963511    5    5    6    6
 0.07596990672161437    6    1    1    1
 0.03465998963970639    6    1    2    2
 1.670963092188024e-15    6    1    3    2
 0.06099887435179529    6    1    3    3
 1.266619188006191e-15    6    1    4    1
 0.01361799389316576    6    1    4    4
 -1.496974880209681e-15    6    1    5    1
 -0.00197478156540336    6    1    5    4
 0.009651670617509486    6    1    5    5
 0.02051215077586757    6    1    6    1
 0.01250218327867674    6    1    6    6
 -0.002212942007291085    6    2    2    1
 -1.85931033837472e-15    6    2    4    2
 0.008070605395572198    6    2    4    3
 -1.78832834949506e-15    6    2    5    2
 0.007083899927066653    6    2    5    3
 0.01026976297650359    6    2    6    2
 -1.703044506319746e-15    6    2    6    3
 0.003775234567478862    6    3    3    1
 0.01656746811807417    6    3    4    2
 0.01454194331663067    6    3    5    2
 -1.70123278937211e-15    6    3    6    2
 0.01645121982697491    6    3    6    3
 1.362848907077857e-15    6    4    1    1
 -1.940188179684127e-15    6    4    2    2
 0.03589967956967433    6    4    3    2
 1.11269743625112e-15    6    4    3    3
 -0.0006153226770975167    6    4    4    1
 -0.01281042398882095    6    4    5    1
 3.4241950637795e-15    6    4    5    4
 0.03330014942340667    6    4    6    4
 0.02167813227634307    6    4    6    5
 -2.812196818729323e-15    6    4    6    6
 -1.75039741457305e-15    6    5    2    2
 0.0315106147582008    6    5    3    2
 -0.0012343817107297    6    5    4    1
 1.130429842614855e-15    6    5    4    4
 -0.01471972812733362    6    5    5    1
 2.661878963777786e-15    6    5    5    4
 -1.792050665846978e-15    6    5    5    5
 0.02167813227634301    6    5    6    4
 0.02763028556610859    6    5    6    5
 -2.239775182287979e-15    6    5    6    6
 0.4568894007600846    6    6    1    1
 0.3979501804472175    6    6    2    2
 -5.355189261222703e-15    6    6    3    2
 0.4273553384550587    6    6    3    3
 1.302560490024085e-15    6    6    4    1
 0.3536157594791999    6    6    4    4
 1.208234901017846e-15    6    6    5    1
 0.01573444298963368    6    6    5    4
 0.3495004533963512    6    6    5    5
 0.01250218327867675    6    6    6    1
 -2.59602977542529e-15    6    6    6    4
 -2.041772919356491e-15    6    6    6    5
 0.3944760155018766    6    6    6    6
 -4.605548628413478    1    1  0  0
 -3.357629897819925    2    2  0  0
 1.356728866088737e-14    3    2  0  0
 -3.731422569048395    3    3  0  0
 -1.933175841628554e-14    4    1  0  0
 -1.922296172689207    4    4  0  0
 6.081940506774686e-15    5    1  0  0
 0.0007975684667675953    5    4  0  0
 -1.934104724922394    5    5  0  0
 -0.2657254939309523    6    1  0  0
 1.223822982524989e-15    6    2  0  0
 3.309535049926482e-15    6    3  0  0
 2.816323563248346e-15    6    4  0  0
 3.476927946943764e-15    6    5  0  0
 -1.922515998561472    6    6  0  0
 -89.10428368009778  0  0  0  0
