 &FCI NORB=   6,NELEC= 6,MS2=0,
  ORBSYM=1,1,1,1,1,1,
  ISYM=1,
 &END
 0.5095436485228011    1    1    1    1
 0.4481175335917774    1    1    2    2
 0.4481175335917771    1    1    3    3
 -2.837519715720438e-14    1    1    4    2
 -3.438872450689523e-14    1    1    4    3
 0.4532243694284257    1    1    4    4
 3.181472012919739e-14    1    1    5    2
 -2.891550930986253e-14    1    1    5    3
 0.4532243694284265    1    1    5    5
 5.466937666454008e-14    1    1    6    1
 1.325941202934591e-15    1    1    6    3
 0.4989059082816764    1    1    6    6
 0.01995006269796483    2    1    2    1
 1.168540724707015e-14    2    1    4    1
 -1.69153542034115e-15    2    1    4    2
 -2.066989623782207e-15    2    1    4    3
 -1.365519918492111e-14    2    1    5    1
 2.055974119781847e-15    2    1    5    2
 -1.343095956352502e-15    2    1    5    3
 2.362372858316393e-15    2    1    6    1
 4.547758179697554e-14    2    1    6    2
 -0.008434364167808732    2    1    6    4
 0.009728577637025799    2    1    6    5
 0.4481175335917774    2    2    1    1
 0.4693877643060677    2    2    2    2
 0.4348104411697291    2    2    3    3
 -3.169469352769239e-13    2    2    4    2
 -3.104604179532226e-13    2    2    4    3
 0.4483988322746948    2    2    4    4
 3.650966790176569e-13    2    2    5    2
 -2.662014150236168e-13    2    2    5    3
 -0.01699239488304448    2    2    5    4
 0.4532667698599512    2    2    5    5
 4.062283118408999e-13    2    2    6    1
 0.4603856388130761    2    2    6    6
 0.01995006269796479    3    1    3    1
 1.32478547099553e-14    3    1    4    1
 -2.575921024759019e-15    3    1    4    2
 -3.005115148480712e-15    3    1    4    3
 1.163770594194921e-14    3    1    5    1
 2.640440201934316e-15    3    1    5    2
 -2.646197148355729e-15    3    1    5    3
 3.555015012380361e-15    3    1    6    1
 4.708235845450316e-14    3    1    6    3
 -0.009728577637025797    3    1    6    4
 -0.008434364167808735    3    1    6    5
 0.01728866156816909    3    2    3    2
 -3.498072853922547e-14    3    2    4    2
 -3.384005203316856e-14    3    2    4    3
 0.01699239488304414    3    2    4    4
 -1.764097731554639e-14    3    2    5    2
 2.438944132519147e-14    3    2    5    3
 -0.002433968792627773    3    2    5    4
 -0.01699239488304439    3    2    5    5
 7.589651449858009e-15    3    2    6    1
 0.448117533591777    3    3    1    1
 0.4348104411697292    3    3    2    2
 0.469387764306067    3    3    3    3
 -2.846031244875535e-13    3    3    4    2
 -3.890362085755793e-13    3    3    4    3
 0.45326676985995    3    3    4    4
 3.249220554071841e-13    3    3    5    2
 -3.36832023048201e-13    3    3    5    3
 0.01699239488304408    3    3    5    4
 0.4483988322746953    3    3    5    5
 4.275682616108284e-13    3    3    6    1
 1.004615866821353e-15    3    3    6    3
 0.4603856388130758    3    3    6    6
 1.168612876791449e-14    4    1    2    1
 1.325054936902359e-14    4    1    3    1
 0.02209043482007155    4    1    4    1
 -0.005235106598574471    4    1    6    2
 -0.006038409057166604    4    1    6    3
 -2.839986854584086e-14    4    2    1    1
 -1.69153542034115e-15    4    2    2    1
 -3.169526679959109e-13    4    2    2    2
 -2.575921024759019e-15    4    2    3    1
 -3.498329759015449e-14    4    2    3    2
 -2.845955033086106e-13    4    2    3    3
 0.089000209254811    4    2    4    2
 0.08467286182449388    4    2    4    3
 2.144256723134869e-13    4    2    4    4
 -0.08467286182449413    4    2    5    2
 0.05781709095160729    4    2    5    3
 -1.552886508618401e-14    4    2    5    4
 1.618006062790132e-13    4    2    5    5
 -0.08880272246274593    4    2    6    1
 -2.681054822131457e-15    4    2    6    4
 7.085105899981017e-14    4    2    6    6
 -3.442179810339962e-14    4    3    1    1
 -2.066989623782207e-15    4    3    2    1
 -3.104909043630602e-13    4    3    2    2
 -3.005115148480712e-15    4    3    3    1
 -3.384191052933395e-14    4    3    3    2
 -3.890216197036122e-13    4    3    3    3
 0.08467286182449388    4    3    4    2
 0.1132570729496331    4    3    4    3
 2.453274264508157e-13    4    3    4    4
 -0.08207395464642979    4    3    5    2
 0.08467286182449377    4    3    5    3
 2.737104976262977e-14    4    3    5    4
 1.882658390078493e-13    4    3    5    5
 -0.1024290821062006    4    3    6    1
 -3.149040972160466e-15    4    3    6    4
 8.029223576158669e-14    4    3    6    6
 0.4532243694284256    4    4    1    1
 0.4483988322746948    4    4    2    2
 0.01699239488304414    4    4    3    2
 0.4532667698599499    4    4    3    3
 2.144226636524582e-13    4    4    4    2
 2.453279143417933e-13    4    4    4    3
 0.4752173483305243    4    4    4    4
 -2.021412009133028e-13    4    4    5    2
 1.767106087651425e-13    4    4    5    3
 0.4384927762133727    4    4    5    5
 -2.046279697615841e-13    4    4    6    1
 0.4590058819084311    4    4    6    6
 -1.365472714030641e-14    5    1    2    1
 1.163954584873737e-14    5    1    3    1
 0.0220904348200716    5    1    5    1
 0.006038409057166617    5    1    6    2
 -0.005235106598574459    5    1    6    3
 1.420010078490366e-15    5    1    6    5
 3.181926834807825e-14    5    2    1    1
 2.055974119781846e-15    5    2    2    1
 3.65111369957094e-13    5    2    2    2
 2.640440201934317e-15    5    2    3    1
 -1.763892580174814e-14    5    2    3    2
 3.249166483723653e-13    5    2    3    3
 -0.08467286182449411    5    2    4    2
 -0.0820739546464298    5    2    4    3
 -2.021118461394827e-13    5    2    4    4
 0.1132570729496337    5    2    5    2
 -0.08467286182449402    5    2    5    3
 9.998431119498385e-15    5    2    5    4
 -2.31218588383781e-13    5    2    5    5
 0.1024290821062008    5    2    6    1
 2.951693578446869e-15    5    2    6    4
 -8.243789092121627e-14    5    2    6    6
 -2.894160568795268e-14    5    3    1    1
 -1.343095956352501e-15    5    3    2    1
 -2.662169529960012e-13    5    3    2    2
 -2.646197148355728e-15    5    3    3    1
 2.439434220488472e-14    5    3    3    2
 -3.368201933860596e-13    5    3    3    3
 0.05781709095160729    5    3    4    2
 0.08467286182449374    5    3    4    3
 1.767239173468098e-13    5    3    4    4
 -0.08467286182449402    5    3    5    2
 0.08900020925481084    5    3    5    3
 2.754054444350715e-14    5    3    5    4
 1.988184261864957e-13    5    3    5    5
 -0.08880272246274581    5    3    6    1
 -2.655378103257096e-15    5    3    6    4
 7.033000740375714e-14    5    3    6    6
 -0.01699239488304447    5    4    2    2
 -0.002433968792627773    5    4    3    2
 0.01699239488304404    5    4    3    3
 -1.550874635962082e-14    5    4    4    2
 2.735596283528975e-14    5    4    4    3
 9.991282161423559e-15    5    4    5    2
 2.754509512801627e-14    5    4    5    3
 0.01836228605857623    5    4    5    4
 -8.353743123551515e-15    5    4    6    1
 0.4532243694284265    5    5    1    1
 0.4532667698599512    5    5    2    2
 -0.0169923948830444    5    5    3    2
 0.4483988322746952    5    5    3    3
 1.61765024118965e-13    5    5    4    2
 1.882316595343617e-13    5    5    4    3
 0.4384927762133727    5    5    4    4
 -2.312067095937287e-13    5    5    5    2
 1.988460530131034e-13    5    5    5    3
 0.4752173483305261    5    5    5    5
 -1.882973058880186e-13    5    5    6    1
 0.4590058819084318    5    5    6    6
 5.463826006218975e-14    6    1    1    1
 2.362372858316393e-15    6    1    2    1
 4.062032286054895e-13    6    1    2    2
 3.555015012380361e-15    6    1    3    1
 7.589564285197248e-15    6    1    3    2
 4.276196638539759e-13    6    1    3    3
 -0.08880272246274593    6    1    4    2
 -0.1024290821062006    6    1    4    3
 -2.046465888460094e-13    6    1    4    4
 0.1024290821062009    6    1    5    2
 -0.08880272246274581    6    1    5    3
 -8.355959695872939e-15    6    1    5    4
 -1.882695930578715e-13    6    1    5    5
 0.1497499451289848    6    1    6    1
 3.663856191581404e-15    6    1    6    4
 -6.720774110846595e-14    6    1    6    6
 4.547342406142601e-14    6    2    2    1
 -0.005235106598574473    6    2    4    1
 0.006038409057166618    6    2    5    1
 0.02225775798482694    6    2    6    2
 6.296138198476353e-15    6    2    6    4
 -7.450637329320386e-15    6    2    6    5
 1.325941202934593e-15    6    3    1    1
 4.708057859497156e-14    6    3    3    1
 1.004615866821352e-15    6    3    3    3
 -0.006038409057166605    6    3    4    1
 -0.005235106598574461    6    3    5    1
 0.02225775798482691    6    3    6    3
 6.996070321912788e-15    6    3    6    4
 6.245141732853961e-15    6    3    6    5
 -0.008434364167808734    6    4    2    1
 -0.009728577637025797    6    4    3    1
 -2.681054822131456e-15    6    4    4    2
 -3.149040972160466e-15    6    4    4    3
 2.951693578446869e-15    6    4    5    2
 -2.655378103257096e-15    6    4    5    3
 3.663856191581404e-15    6    4    6    1
 6.293359930409359e-15    6    4    6    2
 6.989546474153036e-15    6    4    6    3
 0.0238825907557499    6    4    6    4
 0.009728577637025802    6    5    2    1
 -0.008434364167808739    6    5    3    1
 1.416213774827665e-15    6    5    5    1
 -7.452128107307554e-15    6    5    6    2
 6.244916422089991e-15    6    5    6    3
 0.02388259075574994    6    5    6    5
 0.4989059082816765    6    6    1    1
 0.4603856388130761    6    6    2    2
 0.4603856388130759    6    6    3    3
 7.085730114632371e-14    6    6    4    2
 8.032495431601824e-14    6    6    4    3
 0.4590058819084311    6    6    4    4
 -8.244796447128e-14    6    6    5    2
 7.033237450011949e-14    6    6    5    3
 0.4590058819084319    6    6    5    5
 -6.715504888288315e-14    6    6    6    1
 0.523149781782861    6    6    6    6
 -2.795561881128875    1    1  0  0
 -2.640948142747962    2    2  0  0
 -2.64094814274796    3    3  0  0
 -2.81096354401024e-15    4    1  0  0
 -2.839818224326107e-13    4    2  0  0
 -3.270329970370134e-13    4    3  0  0
 -2.520230101681078    4    4  0  0
 3.260807422689194e-13    5    2  0  0
 -2.82543655355863e-13    5    3  0  0
 -2.520230101681083    5    5  0  0
 2.088103995268042e-13    6    1  0  0
 -1.335472274859935e-15    6    3  0  0
 -2.479250727455375    6    6  0  0
 -99.0238154608995  0  0  0  0
