 &FCI NORB=   6,NELEC= 6,MS2=0,
  ORBSYM=1,1,1,1,1,1,
  ISYM=1,
 &END
 0.8004047473516561    1    1    1    1
 0.6382021440852053    1    1    2    2
 3.470319074170617e-15    1    1    3    2
 0.5735177531163438    1    1    3    3
 0.4587069160310772    1    1    4    4
 0.01037943097831335    1    1    5    4
 0.4431102584141378    1    1    5    5
 -6.617315425735499e-14    1    1    6    2
 -0.113868935672841    1    1    6    3
 0.3484404289608779    1    1    6    6
 0.02679883794370092    2    1    2    1
 -1.172171594901983e-15    2    1    4    2
 0.02537803109137114    2    1    4    3
 0.01267557382605321    2    1    5    3
 -5.016200264407536e-15    2    1    6    1
 -0.002790081768634846    2    1    6    4
 -0.001393563090522269    2    1    6    5
 0.6382021440852053    2    2    1    1
 0.6520448138564723    2    2    2    2
 -1.080992934054947e-14    2    2    3    2
 0.5948264374104764    2    2    3    3
 -4.85126262078639e-15    2    2    4    1
 0.4391174723798715    2    2    4    4
 -2.533238376012381e-15    2    2    5    1
 0.4391174723798721    2    2    5    5
 -5.706459610399506e-14    2    2    6    2
 -0.1015343515065087    2    2    6    3
 0.3697561566223399    2    2    6    6
 0.03249552480331911    3    1    3    1
 0.02359044507429836    3    1    4    2
 1.704502554632532e-15    3    1    4    3
 0.0117827276297409    3    1    5    2
 -0.01503765079169329    3    1    6    1
 3.403310619431998e-15    3    2    1    1
 -1.085188796462466e-14    3    2    2    2
 0.201440040616687    3    2    3    2
 1.625564645998251e-14    3    2    3    3
 0.07433763287969501    3    2    4    1
 1.303986469990788e-15    3    2    4    4
 0.03712944279357427    3    2    5    1
 -0.03756317237368857    3    2    6    2
 -3.443232976301988e-15    3    2    6    3
 1.023151832355018e-13    3    2    6    6
 0.5735177531163438    3    3    1    1
 0.5948264374104764    3    3    2    2
 1.619364364824349e-14    3    3    3    2
 0.5710971770841144    3    3    3    3
 5.323161616360705e-15    3    3    4    1
 0.428443729386119    3    3    4    4
 2.573787537263339e-15    3    3    5    1
 0.42844372938612    3    3    5    5
 -4.278868925844392e-14    3    3    6    2
 -0.08794961159781951    3    3    6    3
 0.3669821358174684    3    3    6    6
 -4.851747398367304e-15    4    1    2    2
 0.074337632879695    4    1    3    2
 5.327938154352495e-15    4    1    3    3
 0.04447212093635505    4    1    4    1
 0.01899647564749495    4    1    5    1
 -0.01590646216920173    4    1    6    2
 -2.160872726862163e-15    4    1    6    3
 -1.380725993580636e-14    4    1    6    6
 -1.17154143374279e-15    4    2    2    1
 0.02359044507429835    4    2    3    1
 0.03056153075103073    4    2    4    2
 -0.008867819621605343    4    2    6    1
 8.265145845909012e-15    4    2    6    4
 0.02537803109137114    4    3    2    1
 1.701235181374161e-15    4    3    3    1
 0.05606337815166061    4    3    4    3
 -5.841203578769646e-15    4    3    6    1
 0.0008813740953942965    4    3    6    4
 0.4587069160310769    4    4    1    1
 0.4391174723798715    4    4    2    2
 1.847766976213686e-15    4    4    3    2
 0.428443729386119    4    4    3    3
 0.3900316548802088    4    4    4    4
 0.3565205578950074    4    4    5    5
 -1.60185255699622e-14    4    4    6    2
 -0.04382880623572694    4    4    6    3
 0.3179427922906705    4    4    6    6
 -2.515449248033271e-15    5    1    2    2
 0.03712944279357426    5    1    3    2
 2.575376543553778e-15    5    1    3    3
 0.01899647564749493    5    1    4    1
 0.01592705645049253    5    1    5    1
 -0.007944806073060534    5    1    6    2
 -1.466306608076061e-15    5    1    6    3
 2.5278773516909e-14    5    1    6    6
 0.0117827276297409    5    2    3    1
 0.03056153075103095    5    2    5    2
 -0.004429212884367679    5    2    6    1
 6.972229732579369e-15    5    2    6    5
 0.01267557382605321    5    3    2    1
 0.05606337815166093    5    3    5    3
 -2.821210943354004e-15    5    3    6    1
 0.0008813740953946634    5    3    6    5
 0.0103794309783133    5    4    1    1
 0.01675554849260032    5    4    5    4
 -7.873216479302933e-15    5    4    6    6
 0.4431102584141383    5    5    1    1
 0.4391174723798723    5    5    2    2
 1.031873993907813e-15    5    5    3    2
 0.4284437293861199    5    5    3    3
 0.3565205578950085    5    5    4    4
 0.3900316548802044    5    5    5    5
 -1.32939643653559e-14    5    5    6    2
 -0.04382880623573023    5    5    6    3
 0.3179427922910501    5    5    6    6
 -5.099558470812726e-15    6    1    2    1
 -0.0150376507916934    6    1    3    1
 -0.008867819621605735    6    1    4    2
 -5.48404175016858e-15    6    1    4    3
 -0.004429212884367775    6    1    5    2
 -2.691271920074509e-15    6    1    5    3
 0.00762129923782377    6    1    6    1
 -1.131689622805906e-14    6    1    6    4
 -5.592581621058617e-15    6    1    6    5
 -6.470076753008203e-14    6    2    1    1
 -5.294034524996882e-14    6    2    2    2
 -0.03756317237368861    6    2    3    2
 -4.207477685621306e-14    6    2    3    3
 -0.01590646216920207    6    2    4    1
 -1.32887194593305e-14    6    2    4    4
 -0.007944806073060487    6    2    5    1
 -1.328414646079717e-14    6    2    5    5
 0.02467611407459707    6    2    6    2
 3.334449381919066e-14    6    2    6    3
 2.311582457566186e-13    6    2    6    6
 -0.1138689356728394    6    3    1    1
 -0.1015343515065078    6    3    2    2
 -4.056217167702769e-15    6    3    3    2
 -0.08794961159781908    6    3    3    3
 -2.97737501970749e-15    6    3    4    1
 -0.04382880623573353    6    3    4    4
 -1.441128303931311e-15    6    3    5    1
 -0.04382880623573372    6    3    5    5
 5.723980317506872e-14    6    3    6    2
 0.04371718067852721    6    3    6    3
 -0.004940722653654434    6    3    6    6
 -0.002790081768634598    6    4    2    1
 7.568090398535361e-15    6    4    4    2
 0.000881374095393551    6    4    4    3
 -1.007960567496555e-14    6    4    6    1
 0.01464905316179284    6    4    6    4
 -0.001393563090521951    6    5    2    1
 7.557885160353033e-15    6    5    5    2
 0.000881374095393391    6    5    5    3
 -5.026008905936741e-15    6    5    6    1
 0.01464905316179285    6    5    6    5
 0.3484404289608545    6    6    1    1
 0.3697561566222721    6    6    2    2
 1.359407378331845e-13    6    6    3    2
 0.3669821358174439    6    6    3    3
 3.017703274765804e-14    6    6    4    1
 0.3179427922910152    6    6    4    4
 1.507762014199554e-14    6    6    5    1
 0.3179427922910153    6    6    5    5
 -1.117571313269394e-12    6    6    6    2
 -0.004940722653731064    6    6    6    3
 0.3501872960234567    6    6    6    6
 -4.157656423394903    1    1  0  0
 -3.518430563658334    2    2  0  0
 -1.299200065398733e-14    3    2  0  0
 -3.250730093117842    3    3  0  0
 -1.449144623744125e-15    4    1  0  0
 -2.035062522078978    4    4  0  0
 -1.28921495064469e-15    5    2  0  0
 -0.001762386309132134    5    4  0  0
 -2.032414271330965    5    5  0  0
 3.347984220735024e-15    6    1  0  0
 1.992307122678686e-13    6    2  0  0
 0.4661578974321358    6    3  0  0
 -1.469667088507231    6    6  0  0
 -92.92188153640717  0  0  0  0
