 &FCI NORB=   6,NELEC= 6,MS2=0,
  ORBSYM=1,1,1,1,1,1,
  ISYM=1,
 &END
 0.4610605222766531    1    1    1    1
 0.4140720196230275    1    1    2    2
 0.4140720196230271    1    1    3    3
 -4.1769245618425e-10    1    1    4    2
 -1.133186461197344e-11    1    1    4    3
 0.4179532306565255    1    1    4    4
 -2.009611641370699e-15    1    1    5    1
 1.124987528704398e-11    1    1    5    2
 -4.175864426163035e-10    1    1    5    3
 0.4179532306565254    1    1    5    5
 4.771283813192768e-10    1    1    6    1
 -1.989727453589468e-15    1    1    6    2
 5.924938800937081e-14    1    1    6    3
 2.213571562484445e-15    1    1    6    5
 0.4680598804282308    1    1    6    6
 0.01830748054064995    2    1    2    1
 -2.875628312050281e-11    2    1    4    1
 8.093148193628694e-15    2    1    4    2
 -1.973017145665253e-14    2    1    4    3
 7.799259565995198e-13    2    1    5    1
 7.969248663463178e-15    2    1    5    3
 -1.128573747123661e-15    2    1    5    4
 -7.693504805792423e-15    2    1    6    1
 6.011204122546198e-11    2    1    6    2
 8.635600254222305e-14    2    1    6    3
 -0.01634095256549874    2    1    6    4
 0.0004417749519263253    2    1    6    5
 0.4140720196230275    2    2    1    1
 0.4359257927674478    2    2    2    2
 0.4034649299384432    2    2    3    3
 1.254954001755076e-15    2    2    4    1
 -8.335674807144483e-10    2    2    4    2
 -1.944527155126659e-11    2    2    4    3
 0.4416095166617345    2    2    4    4
 -3.050654930713358e-15    2    2    5    1
 2.248947676408697e-11    2    2    5    2
 -7.107245629289815e-10    2    2    5    3
 -0.0009064857683810171    2    2    5    4
 0.4081037363209174    2    2    5    5
 6.92474137067562e-10    2    2    6    1
 2.320986279075478e-14    2    2    6    3
 0.4271395547142354    2    2    6    6
 0.01830748054064993    3    1    3    1
 1.015422238486623e-15    3    1    3    3
 -7.750981939271529e-13    3    1    4    1
 -2.204345917700521e-13    3    1    4    2
 -6.509551216660238e-15    3    1    4    3
 -2.876230645472687e-11    3    1    5    1
 6.630137856925856e-15    3    1    5    2
 -2.392906602528067e-13    3    1    5    3
 -1.554726971750026e-15    3    1    5    5
 2.28188436119261e-13    3    1    6    1
 8.63597354164216e-14    3    1    6    2
 5.990347163909614e-11    3    1    6    3
 -0.0004417749519263123    3    1    6    4
 -0.01634095256549874    3    1    6    5
 2.762692991689623e-15    3    1    6    6
 0.01623043141450213    3    2    3    2
 -1.883459280476548e-14    3    2    4    1
 -2.799516915926944e-12    3    2    4    2
 -6.116916692104468e-11    3    2    4    3
 0.0009064857683807436    3    2    4    4
 1.142544318170905e-15    3    2    5    1
 -6.133076170361146e-11    3    2    5    2
 5.12254539069575e-13    3    2    5    3
 0.01675289017040853    3    2    5    4
 -0.0009064857683808614    3    2    5    5
 9.949044537491554e-13    3    2    6    1
 1.925985359141742e-15    3    2    6    2
 -1.082316752378972e-15    3    2    6    4
 0.4140720196230272    3    3    1    1
 0.4034649299384431    3    3    2    2
 1.015422238486655e-15    3    3    3    1
 0.435925792767447    3    3    3    3
 -1.040657502474378e-15    3    3    4    1
 -7.083164539960446e-10    3    3    4    2
 -2.249770242470457e-11    3    3    4    3
 0.4081037363209171    3    3    4    4
 -4.072175517286998e-14    3    3    5    1
 1.891838469463957e-11    3    3    5    2
 -8.304734017002501e-10    3    3    5    3
 0.0009064857683805869    3    3    5    4
 0.441609516661734    3    3    5    5
 6.900703142238566e-10    3    3    6    1
 2.705262345938023e-14    3    3    6    3
 -2.159047964777632e-15    3    3    6    5
 0.4271395547142349    3    3    6    6
 -2.875628419729367e-11    4    1    2    1
 1.25495400175506e-15    4    1    2    2
 -7.750972320513411e-13    4    1    3    1
 -1.883459280476548e-14    4    1    3    2
 -1.040657502474379e-15    4    1    3    3
 0.0168771866280539    4    1    4    1
 -1.096873184919958e-15    4    1    5    2
 -1.164560775647804e-15    4    1    5    4
 -0.01388947659425436    4    1    6    2
 -0.0003754997042010654    4    1    6    3
 -4.202578914955387e-11    4    1    6    4
 -7.772726859118107e-14    4    1    6    5
 -4.17692479015851e-10    4    2    1    1
 8.093148193628681e-15    4    2    2    1
 -8.335674982226193e-10    4    2    2    2
 -2.204345917700521e-13    4    2    3    1
 -2.799506998018165e-12    4    2    3    2
 -7.083164683684997e-10    4    2    3    3
 0.2146351757027701    4    2    4    2
 0.005366431996705709    4    2    4    3
 6.608462670249188e-10    4    2    4    4
 -1.222458859708655e-14    4    2    5    1
 -0.005366431996705837    4    2    5    2
 0.1823661043461273    4    2    5    3
 -3.780999561294081e-13    4    2    5    4
 5.565429095360933e-10    4    2    5    5
 -0.1734060136423149    4    2    6    1
 -1.15766506916454e-14    4    2    6    3
 1.425902403598756e-15    4    2    6    4
 -2.048139151131532e-13    4    2    6    5
 2.977426872588826e-10    4    2    6    6
 -1.13318628882543e-11    4    3    1    1
 -1.973017145665253e-14    4    3    2    1
 -1.944527313153891e-11    4    3    2    2
 -6.509551216660257e-15    4    3    3    1
 -6.116917460405703e-11    4    3    3    2
 -2.249769486207678e-11    4    3    3    3
 0.005366431996705724    4    3    4    2
 0.01627961628043793    4    3    4    3
 1.780694229408904e-11    4    3    4    4
 0.01598945507620484    4    3    5    2
 0.005366431996705715    4    3    5    3
 5.095004697428554e-11    4    3    5    4
 1.516699576701978e-11    4    3    5    5
 -0.004688002919873178    4    3    6    1
 2.848541361522842e-15    4    3    6    4
 -5.406109795872151e-15    4    3    6    5
 8.0036420634399e-12    4    3    6    6
 0.4179532306565255    4    4    1    1
 0.4416095166617346    4    4    2    2
 0.0009064857683807569    4    4    3    2
 0.4081037363209171    4    4    3    3
 6.608462165519195e-10    4    4    4    2
 1.780693698912169e-11    4    4    4    3
 0.4497836294149541    4    4    4    4
 -5.403708663975221e-15    4    4    5    1
 -1.499582108607702e-11    4    4    5    2
 5.59162302284384e-10    4    4    5    3
 0.4144593764974174    4    4    5    5
 -5.178989850851438e-10    4    4    6    1
 2.35834394851077e-14    4    4    6    3
 0.4316984633457582    4    4    6    6
 -2.00961164137075e-15    5    1    1    1
 7.799282164474442e-13    5    1    2    1
 -3.050654930713351e-15    5    1    2    2
 -2.876230678062256e-11    5    1    3    1
 1.142544318170899e-15    5    1    3    2
 -4.072175517286997e-14    5    1    3    3
 -1.222458859708655e-14    5    1    4    2
 -5.403708663975217e-15    5    1    4    4
 0.01687718662805388    5    1    5    1
 -1.325346234494798e-14    5    1    5    3
 -7.698766682738852e-15    5    1    5    5
 1.255328226694805e-14    5    1    6    1
 0.0003754997042010703    5    1    6    2
 -0.01388947659425436    5    1    6    3
 -7.773264725039614e-14    5    1    6    4
 -4.181576149930736e-11    5    1    6    5
 2.980411906502126e-14    5    1    6    6
 1.124986308427092e-11    5    2    1    1
 2.248945970865506e-11    5    2    2    2
 6.630137856925856e-15    5    2    3    1
 -6.133075901258779e-11    5    2    3    2
 1.891833375259582e-11    5    2    3    3
 -1.096873184919962e-15    5    2    4    1
 -0.005366431996705847    5    2    4    2
 0.01598945507620483    5    2    4    3
 -1.499583063081485e-11    5    2    4    4
 0.01627961628043794    5    2    5    2
 -0.005366431996705836    5    2    5    3
 5.065336620543379e-11    5    2    5    4
 -1.78495502941733e-11    5    2    5    5
 0.004688002919873269    5    2    6    1
 -1.931163867719416e-14    5    2    6    4
 5.964421568694735e-15    5    2    6    5
 -8.098422424742895e-12    5    2    6    6
 -4.175864241164289e-10    5    3    1    1
 7.969248663463162e-15    5    3    2    1
 -7.107245664052047e-10    5    3    2    2
 -2.392906602528068e-13    5    3    3    1
 5.122759313101743e-13    5    3    3    2
 -8.304734083714816e-10    5    3    3    3
 0.1823661043461272    5    3    4    2
 0.005366431996705716    5    3    4    3
 5.591623114713034e-10    5    3    4    4
 -1.325346234494799e-14    5    3    5    1
 -0.005366431996705823    5    3    5    2
 0.2146351757027699    5    3    5    3
 2.368721192769988e-12    5    3    5    4
 6.580657908006294e-10    5    3    5    5
 -0.1734060136423148    5    3    6    1
 -1.251051917216791e-14    5    3    6    3
 -2.212559301628472e-13    5    3    6    5
 2.978651579303829e-10    5    3    6    6
 -1.128573747123659e-15    5    4    2    1
 -0.0009064857683809908    5    4    2    2
 0.01675289017040853    5    4    3    2
 0.00090648576838062    5    4    3    3
 -1.164560775647797e-15    5    4    4    1
 -3.780969716088184e-13    5    4    4    2
 5.09500517924207e-11    5    4    4    3
 5.065336723520086e-11    5    4    5    2
 2.36873295636356e-12    5    4    5    3
 0.01766212645876824    5    4    5    4
 -8.743851010164938e-13    5    4    6    1
 -1.797188832345547e-14    5    4    6    2
 0.4179532306565255    5    5    1    1
 0.4081037363209173    5    5    2    2
 -1.554726971750042e-15    5    5    3    1
 -0.0009064857683808714    5    5    3    2
 0.441609516661734    5    5    3    3
 5.565428976573032e-10    5    5    4    2
 1.516698331902359e-11    5    5    4    3
 0.4144593764974174    5    5    4    4
 -7.69876668273888e-15    5    5    5    1
 -1.784953805719419e-11    5    5    5    2
 6.580657746223001e-10    5    5    5    3
 0.4497836294149538    5    5    5    5
 -5.155390602862098e-10    5    5    6    1
 -1.233263139335618e-14    5    5    6    3
 0.431698463345758    5    5    6    6
 4.771283249136588e-10    6    1    1    1
 -7.693504805792426e-15    6    1    2    1
 6.924741666921295e-10    6    1    2    2
 2.281884361192609e-13    6    1    3    1
 9.949105206135886e-13    6    1    3    2
 6.9007026570029e-10    6    1    3    3
 -0.1734060136423149    6    1    4    2
 -0.00468800291987316    6    1    4    3
 -5.178989701014932e-10    6    1    4    4
 1.255328226694804e-14    6    1    5    1
 0.004688002919873292    6    1    5    2
 -0.1734060136423149    6    1    5    3
 -8.743823061972168e-13    6    1    5    4
 -5.155390649258941e-10    6    1    5    5
 0.1958948759803208    6    1    6    1
 1.183984021914966e-14    6    1    6    3
 -1.428175847698806e-15    6    1    6    4
 2.0960143128376e-13    6    1    6    5
 -3.116249282274566e-10    6    1    6    6
 -1.989727453589459e-15    6    2    1    1
 6.011204008504172e-11    6    2    2    1
 8.635890104951922e-14    6    2    3    1
 1.925985359141743e-15    6    2    3    2
 -0.01388947659425436    6    2    4    1
 0.000375499704201071    6    2    5    1
 -1.797188832345546e-14    6    2    5    4
 0.01864118728038347    6    2    6    2
 2.700479825583249e-11    6    2    6    4
 -7.370048547958221e-13    6    2    6    5
 5.924938800937077e-14    6    3    1    1
 8.635423115992554e-14    6    3    2    1
 2.320986279075474e-14    6    3    2    2
 5.990347038410723e-11    6    3    3    1
 2.705262345938017e-14    6    3    3    3
 -0.0003754997042010664    6    3    4    1
 -1.157665069164539e-14    6    3    4    2
 2.358343948510765e-14    6    3    4    4
 -0.01388947659425436    6    3    5    1
 -1.251051917216791e-14    6    3    5    3
 -1.233263139335622e-14    6    3    5    5
 1.183984021914965e-14    6    3    6    1
 0.01864118728038345    6    3    6    3
 7.236171399224983e-13    6    3    6    4
 2.702219604490668e-11    6    3    6    5
 2.774320231409385e-14    6    3    6    6
 -0.01634095256549874    6    4    2    1
 -0.0004417749519263115    6    4    3    1
 -1.082316752378974e-15    6    4    3    2
 -4.202578801770661e-11    6    4    4    1
 1.425902403598749e-15    6    4    4    2
 2.848541361522844e-15    6    4    4    3
 -7.773198393383821e-14    6    4    5    1
 -1.931163867719416e-14    6    4    5    2
 -1.428175847698793e-15    6    4    6    1
 2.700479716824218e-11    6    4    6    2
 7.236163301590007e-13    6    4    6    3
 0.01987276663175535    6    4    6    4
 2.213571562484418e-15    6    5    1    1
 0.0004417749519263267    6    5    2    1
 -0.01634095256549874    6    5    3    1
 -2.159047964777693e-15    6    5    3    3
 -7.772669421181932e-14    6    5    4    1
 -2.048139151131532e-13    6    5    4    2
 -5.406109795872136e-15    6    5    4    3
 -4.181575948358018e-11    6    5    5    1
 5.964421568694768e-15    6    5    5    2
 -2.212559301628472e-13    6    5    5    3
 2.096014312837599e-13    6    5    6    1
 -7.370080294753084e-13    6    5    6    2
 2.702219439827463e-11    6    5    6    3
 0.01987276663175535    6    5    6    5
 0.4680598804282308    6    6    1    1
 0.4271395547142354    6    6    2    2
 2.76269299168959e-15    6    6    3    1
 0.427139554714235    6    6    3    3
 2.977427264767439e-10    6    6    4    2
 8.003633271815112e-12    6    6    4    3
 0.4316984633457581    6    6    4    4
 2.980411906502127e-14    6    6    5    1
 -8.098449794341316e-12    6    6    5    2
 2.97865085430903e-10    6    6    5    3
 0.431698463345758    6    6    5    5
 -3.116248431989013e-10    6    6    6    1
 2.774320231409385e-14    6    6    6    3
 0.4900953717494238    6    6    6    6
 -2.52528417455119    1    1  0  0
 -2.416670763826062    2    2  0  0
 -7.436555353941504e-15    3    1  0  0
 -2.41667076382606    3    3  0  0
 -3.084401818968709e-11    4    2  0  0
 -7.493674327981384e-13    4    3  0  0
 -2.39261561198761    4    4  0  0
 -4.676057762915245e-14    5    1  0  0
 9.24053490517808e-13    5    2  0  0
 -3.107519895974385e-11    5    3  0  0
 -2.392615611987609    5    5  0  0
 4.291281479468223e-11    6    1  0  0
 1.819071092893768e-15    6    2  0  0
 -5.402115093654563e-14    6    3  0  0
 -2.423032835447754    6    6  0  0
 -99.66909199174249  0  0  0  0
