 &FCI NORB=   6,NELEC= 6,MS2=0,
  ORBSYM=1,1,1,1,1,1,
  ISYM=1,
 &END
 0.4389928617554787    1    1    1    1
 0.3978071649705699    1    1    2    2
 0.3978071649705693    1    1    3    3
 -5.215020541145709e-15    1    1    4    1
 -5.716235975184635e-08    1    1    4    2
 2.758572867166352e-09    1    1    4    3
 0.4007836218247479    1    1    4    4
 -2.759077148504245e-09    1    1    5    2
 -5.716460428163866e-08    1    1    5    3
 0.4007836218247485    1    1    5    5
 6.52526749738127e-08    1    1    6    1
 1.174232386023512e-13    1    1    6    2
 -7.089158712910232e-15    1    1    6    3
 0.4478902663395787    1    1    6    6
 0.0172411081736866    2    1    2    1
 -4.254873009712043e-09    2    1    4    1
 -5.364199414003145e-13    2    1    4    2
 2.63877684301735e-14    2    1    4    3
 -2.053234951061425e-10    2    1    5    1
 -2.592388535216817e-14    2    1    5    2
 -4.945244087521403e-13    2    1    5    3
 5.145465049889527e-13    2    1    6    1
 7.129968998216233e-09    2    1    6    2
 8.359396381708075e-13    2    1    6    3
 -0.01658035740107106    2    1    6    4
 -0.0008002014934329566    2    1    6    5
 0.39780716497057    2    2    1    1
 0.4245908946083938    2    2    2    2
 0.3922188795761811    2    2    3    3
 -9.261438620280458e-14    2    2    4    1
 -1.018684555451702e-07    2    2    4    2
 4.218523285406332e-09    2    2    4    3
 0.4296816240232733    2    2    4    4
 -3.854157126551597e-15    2    2    5    1
 -4.916749429307035e-09    2    2    5    2
 -8.745192699897594e-08    2    2    5    3
 0.001605760364446894    2    2    5    4
 0.3964874003703627    2    2    5    5
 8.561492561672864e-08    2    2    6    1
 4.396303302983974e-14    2    2    6    2
 -2.39696627159714e-15    2    2    6    3
 0.4110407496894117    2    2    6    6
 0.01724110817368657    3    1    3    1
 2.053650825885876e-10    3    1    4    1
 3.129928312814645e-14    3    1    4    2
 -4.25468873915006e-09    3    1    5    1
 -4.095089006384352e-14    3    1    5    2
 3.173638527596751e-14    3    1    5    3
 -3.042002627630316e-14    3    1    6    1
 8.359765827833514e-13    3    1    6    2
 7.13601906968697e-09    3    1    6    3
 0.0008002014934329542    3    1    6    4
 -0.01658035740107106    3    1    6    5
 0.01618600751610612    3    2    3    2
 4.402614771405026e-15    3    2    4    1
 3.367461592139939e-10    3    2    4    2
 -7.215305422283025e-09    3    2    4    3
 -0.00160576036444689    3    2    4    4
 -4.07617087708758e-14    3    2    5    1
 -7.210209849167563e-09    3    2    5    2
 -3.594583054274585e-10    3    2    5    3
 0.01659711182645558    3    2    5    4
 0.001605760364446906    3    2    5    5
 9.908681519344857e-12    3    2    6    1
 2.829540331760798e-15    3    2    6    3
 0.3978071649705693    3    3    1    1
 0.3922188795761811    3    3    2    2
 0.4245908946083927    3    3    3    3
 -1.110095559460395e-14    3    3    4    1
 -8.752397116688099e-08    3    3    4    2
 4.920349455097001e-09    3    3    4    3
 0.3964874003703615    3    3    4    4
 4.887926725570752e-15    3    3    5    1
 -4.226166692587654e-09    3    3    5    2
 -1.019584730951822e-07    3    3    5    3
 -0.001605760364446866    3    3    5    4
 0.4296816240232731    3    3    5    5
 8.568664143049326e-08    3    3    6    1
 3.828283508987275e-14    3    3    6    2
 -2.812023728174228e-15    3    3    6    3
 0.4110407496894112    3    3    6    6
 -5.215020541145723e-15    4    1    1    1
 -4.254873008793535e-09    4    1    2    1
 -9.261438620280453e-14    4    1    2    2
 2.053650825636038e-10    4    1    3    1
 4.402614771405022e-15    4    1    3    2
 -1.1100955594604e-14    4    1    3    3
 0.01587104070326597    4    1    4    1
 -2.017499616885449e-14    4    1    4    4
 -1.438153164624937e-14    4    1    5    5
 -0.01503141027919665    4    1    6    2
 0.000725446180854923    4    1    6    3
 -5.630098785635039e-09    4    1    6    4
 -5.245912982371095e-13    4    1    6    5
 6.363424478926266e-14    4    1    6    6
 -5.716235976528042e-08    4    2    1    1
 -5.364199414003145e-13    4    2    2    1
 -1.01868455568694e-07    4    2    2    2
 3.129928312814644e-14    4    2    3    1
 3.367461528529353e-10    4    2    3    2
 -8.75239711105984e-08    4    2    3    3
 0.2270263224645041    4    2    4    2
 -0.01017018030571627    4    2    4    3
 8.631858595623275e-08    4    2    4    4
 1.400198222395269e-15    4    2    5    1
 0.0101701803057163    4    2    5    2
 0.194430587291285    4    2    5    3
 3.098779789676044e-10    4    2    5    4
 7.383554748185579e-08    4    2    5    5
 -0.1865849376723629    4    2    6    1
 1.33371738865349e-15    4    2    6    3
 -5.029676776654825e-13    4    2    6    4
 2.971790099064648e-15    4    2    6    5
 4.353659743424183e-08    4    2    6    6
 2.758572872886932e-09    4    3    1    1
 2.638776843017353e-14    4    3    2    1
 4.218523291169544e-09    4    3    2    2
 -7.215305424549056e-09    4    3    3    2
 4.920349465308407e-09    4    3    3    3
 -0.01017018030571629    4    3    4    2
 0.0167887010030587    4    3    4    3
 -4.166202516593858e-09    4    3    4    4
 0.01580703417016031    4    3    5    2
 -0.01017018030571629    4    3    5    3
 6.277405492806982e-09    4    3    5    4
 -3.562602392768743e-09    4    3    5    5
 0.009004965464005896    4    3    6    1
 2.423937013982016e-14    4    3    6    4
 -4.109104740726933e-14    4    3    6    5
 -2.101401926379387e-09    4    3    6    6
 0.4007836218247479    4    4    1    1
 0.4296816240232733    4    4    2    2
 -0.001605760364446884    4    4    3    2
 0.3964874003703615    4    4    3    3
 -2.017499616885443e-14    4    4    4    1
 8.631858589784507e-08    4    4    4    2
 -4.16620252915938e-09    4    4    4    3
 0.4359365038705383    4    4    4    4
 3.560643130080031e-09    4    4    5    2
 7.375972718860434e-08    4    4    5    3
 0.4013501804860508    4    4    5    5
 -6.904866623341821e-08    4    4    6    1
 -3.968300580605091e-14    4    4    6    2
 1.361135417789199e-15    4    4    6    3
 0.4150453648695581    4    4    6    6
 -2.053234954750217e-10    5    1    2    1
 -3.854157126551615e-15    5    1    2    2
 -4.254688740393829e-09    5    1    3    1
 -4.076170877087581e-14    5    1    3    2
 4.887926725570793e-15    5    1    3    3
 1.400198222395263e-15    5    1    4    2
 0.01587104070326599    5    1    5    1
 1.503202842269983e-15    5    1    5    3
 -2.894908610298926e-15    5    1    5    4
 -1.448270761686382e-15    5    1    6    1
 -0.0007254461808549212    5    1    6    2
 -0.01503141027919664    5    1    6    3
 -5.246284897597576e-13    5    1    6    4
 -5.636098157474936e-09    5    1    6    5
 -2.759077146655453e-09    5    2    1    1
 -2.592388535216814e-14    5    2    2    1
 -4.91674943074678e-09    5    2    2    2
 -4.095089006384353e-14    5    2    3    1
 -7.210209850767608e-09    5    2    3    2
 -4.226166680704126e-09    5    2    3    3
 0.01017018030571629    5    2    4    2
 0.01580703417016031    5    2    4    3
 3.560643127544861e-09    5    2    4    4
 0.01678870100305875    5    2    5    2
 0.01017018030571629    5    2    5    3
 6.284594235392007e-09    5    2    5    4
 4.169577829872077e-09    5    2    5    5
 -0.009004965464005907    5    2    6    1
 -2.206757207507906e-14    5    2    6    4
 4.252914309947795e-15    5    2    6    5
 2.100795716861801e-09    5    2    6    6
 -5.716460425893359e-08    5    3    1    1
 -4.945244087521404e-13    5    3    2    1
 -8.745192699632156e-08    5    3    2    2
 3.17363852759675e-14    5    3    3    1
 -3.594583035979203e-10    5    3    3    2
 -1.019584731275615e-07    5    3    3    3
 0.194430587291285    5    3    4    2
 -0.01017018030571629    5    3    4    3
 7.375972713314358e-08    5    3    4    4
 1.503202842269981e-15    5    3    5    1
 0.0101701803057163    5    3    5    2
 0.227026322464504    5    3    5    3
 -2.963894279898132e-10    5    3    5    4
 8.640068808997744e-08    5    3    5    5
 -0.1865849376723629    5    3    6    1
 1.394460314188534e-15    5    3    6    3
 -4.661314532081295e-13    5    3    6    4
 5.104623814902773e-15    5    3    6    5
 4.353389908045869e-08    5    3    6    6
 0.001605760364446902    5    4    2    2
 0.01659711182645558    5    4    3    2
 -0.001605760364446883    5    4    3    3
 3.098779860970278e-10    5    4    4    2
 6.277405495673474e-09    5    4    4    3
 -2.894908610298921e-15    5    4    5    1
 6.284594231687297e-09    5    4    5    2
 -2.963894276461296e-10    5    4    5    3
 0.01729316169224408    5    4    5    4
 -6.121630591675602e-12    5    4    6    1
 -1.474779064530973e-15    5    4    6    2
 -3.917061008506818e-14    5    4    6    3
 0.4007836218247485    5    5    1    1
 0.3964874003703627    5    5    2    2
 0.001605760364446908    5    5    3    2
 0.4296816240232732    5    5    3    3
 -1.438153164624935e-14    5    5    4    1
 7.383554743160344e-08    5    5    4    2
 -3.562602388046892e-09    5    5    4    3
 0.4013501804860509    5    5    4    4
 4.169577835095677e-09    5    5    5    2
 8.640068809905281e-08    5    5    5    3
 0.4359365038705397    5    5    5    5
 -6.911865465012084e-08    5    5    6    1
 3.865927745331346e-14    5    5    6    2
 -1.606417569969627e-15    5    5    6    3
 0.4150453648695586    5    5    6    6
 6.525267493856935e-08    6    1    1    1
 5.145465049889528e-13    6    1    2    1
 8.561492559287765e-08    6    1    2    2
 -3.042002627630317e-14    6    1    3    1
 9.908678705420086e-12    6    1    3    2
 8.568664141536866e-08    6    1    3    3
 -0.1865849376723629    6    1    4    2
 0.009004965464005903    6    1    4    3
 -6.904866625838298e-08    6    1    4    4
 -1.448270761686373e-15    6    1    5    1
 -0.009004965464005907    6    1    5    2
 -0.1865849376723629    6    1    5    3
 -6.121641816844562e-12    6    1    5    4
 -6.911865457517308e-08    6    1    5    5
 0.209879411537728    6    1    6    1
 -1.354045692979913e-15    6    1    6    3
 4.809398696932207e-13    6    1    6    4
 -5.112101131973659e-15    6    1    6    5
 -4.652747229719678e-08    6    1    6    6
 1.174232386023513e-13    6    2    1    1
 7.129968997312226e-09    6    2    2    1
 4.396303302983973e-14    6    2    2    2
 8.359771028539143e-13    6    2    3    1
 3.828283508987287e-14    6    2    3    3
 -0.01503141027919665    6    2    4    1
 -3.968300580605094e-14    6    2    4    4
 -0.0007254461808549217    6    2    5    1
 -1.474779064530971e-15    6    2    5    4
 3.86592774533135e-14    6    2    5    5
 0.01782715882509237    6    2    6    2
 3.766841588729577e-09    6    2    6    4
 1.817498883988441e-10    6    2    6    5
 4.486472944162197e-14    6    2    6    6
 -7.089158712910223e-15    6    3    1    1
 8.359397548728806e-13    6    3    2    1
 -2.396966271597162e-15    6    3    2    2
 7.136019067306952e-09    6    3    3    1
 2.829540331760792e-15    6    3    3    2
 -2.812023728174221e-15    6    3    3    3
 0.0007254461808549224    6    3    4    1
 1.333717388653506e-15    6    3    4    2
 1.361135417789194e-15    6    3    4    4
 -0.01503141027919664    6    3    5    1
 1.394460314188532e-15    6    3    5    3
 -3.917061008506818e-14    6    3    5    4
 -1.60641756996963e-15    6    3    5    5
 -1.354045692979909e-15    6    3    6    1
 0.01782715882509234    6    3    6    3
 -1.818247108306231e-10    6    3    6    4
 3.766507676838639e-09    6    3    6    5
 -2.830250146942555e-15    6    3    6    6
 -0.01658035740107106    6    4    2    1
 0.0008002014934329533    6    4    3    1
 -5.63009878715382e-09    6    4    4    1
 -5.029676776654825e-13    6    4    4    2
 2.423937013982018e-14    6    4    4    3
 -5.246278625378932e-13    6    4    5    1
 -2.206757207507905e-14    6    4    5    2
 -4.661314532081295e-13    6    4    5    3
 4.809398696932207e-13    6    4    6    1
 3.766841590023844e-09    6    4    6    2
 -1.818247101970425e-10    6    4    6    3
 0.01876082770936471    6    4    6    4
 -0.0008002014934329556    6    5    2    1
 -0.01658035740107106    6    5    3    1
 -5.24591052612939e-13    6    5    4    1
 2.971790099064646e-15    6    5    4    2
 -4.109104740726933e-14    6    5    4    3
 -5.636098155648046e-09    6    5    5    1
 4.252914309947793e-15    6    5    5    2
 5.104623814902795e-15    6    5    5    3
 -5.112101131973658e-15    6    5    6    1
 1.817498885021821e-10    6    5    6    2
 3.766507673991549e-09    6    5    6    3
 0.01876082770936474    6    5    6    5
 0.4478902663395788    6    6    1    1
 0.4110407496894117    6    6    2    2
 0.4110407496894111    6    6    3    3
 6.363424478926269e-14    6    6    4    1
 4.353659735786228e-08    6    6    4    2
 -2.101401931362541e-09    6    6    4    3
 0.415045364869558    6    6    4    4
 2.100795704850815e-09    6    6    5    2
 4.353389907700835e-08    6    6    5    3
 0.4150453648695587    6    6    5    5
 -4.652747233550723e-08    6    6    6    1
 4.486472944162185e-14    6    6    6    2
 -2.830250146942552e-15    6    6    6    3
 0.4672652975839452    6    6    6    6
 -2.400535991116049    1    1  0  0
 -2.328741893890959    2    2  0  0
 -2.328741893890956    3    3  0  0
 -3.613937422896162e-14    4    1  0  0
 3.732826074149187e-09    4    2  0  0
 -1.795028531061593e-10    4    3  0  0
 -2.322212135525696    4    4  0  0
 1.811620161136095e-10    5    2  0  0
 3.740227628196038e-09    5    3  0  0
 -2.3222121355257    5    5  0  0
 -2.532314194220089e-09    6    1  0  0
 -1.112411005445402e-13    6    2  0  0
 7.168319218326568e-15    6    3  0  0
 -2.356389388591765    6    6  0  0
 -99.94188487110108  0  0  0  0
