 &FCI NORB=   6,NELEC= 6,MS2=0,
  ORBSYM=1,1,1,1,1,1,
  ISYM=1,
 &END
 0.7409484222630293    1    1    1    1
 0.5916441280494846    1    1    2    2
 -3.788747782427417e-15    1    1    3    2
 0.5528275538049712    1    1    3    3
 0.4725650319810165    1    1    4    4
 -1.35308431126191e-15    1    1    5    1
 -0.01433083979547584    1    1    5    4
 0.4648207753073479    1    1    5    5
 5.360994912198092e-14    1    1    6    2
 -0.1040594442132651    1    1    6    3
 0.3415775937985908    1    1    6    6
 0.02789768827367869    2    1    2    1
 5.382659706882194e-15    2    1    4    2
 0.0272251783335007    2    1    4    3
 -4.075481963634759e-15    2    1    5    2
 -0.02084534832369795    2    1    5    3
 6.948785554665264e-15    2    1    6    1
 -0.004087550650842501    2    1    6    4
 0.003129691789850524    2    1    6    5
 0.5916441280494846    2    2    1    1
 0.6078052400068069    2    2    2    2
 4.073043985419744e-14    2    2    3    2
 0.5761321019475351    2    2    3    3
 1.663946758156953e-14    2    2    4    1
 0.451904005303376    2    2    4    4
 -1.36277707868393e-14    2    2    5    1
 0.4519040053033762    2    2    5    5
 2.963861794880174e-14    2    2    6    2
 -0.08979309436410832    2    2    6    3
 0.3648221624459225    2    2    6    6
 0.03379678670024179    3    1    3    1
 0.02405729783431784    3    1    4    2
 -5.347332302397466e-15    3    1    4    3
 -0.01841981517771081    3    1    5    2
 4.093609021295084e-15    3    1    5    3
 -0.01509285614132869    3    1    6    1
 1.107285884940993e-15    3    1    6    4
 -3.799694933692699e-15    3    2    1    1
 4.068446968208406e-14    3    2    2    2
 0.2100287594422908    3    2    3    2
 -4.440864993446314e-14    3    2    3    3
 0.07926613398011222    3    2    4    1
 -0.06069125251808378    3    2    5    1
 -0.03254212612282266    3    2    6    2
 -2.410361000420094e-15    3    2    6    3
 -1.65991027346879e-13    3    2    6    6
 0.5528275538049712    3    3    1    1
 0.5761321019475349    3    3    2    2
 -4.442973766671798e-14    3    3    3    2
 0.5641255364542197    3    3    3    3
 -1.635150348455738e-14    3    3    4    1
 0.4440692426366045    3    3    4    4
 1.177812188057903e-14    3    3    5    1
 0.4440692426366049    3    3    5    5
 3.045393798251084e-14    3    3    6    2
 -0.08210281594277075    3    3    6    3
 0.3644976777818911    3    3    6    6
 1.668595912937958e-14    4    1    2    2
 0.07926613398011227    4    1    3    2
 -1.632544343461469e-14    4    1    3    3
 0.04959136274042074    4    1    4    1
 -0.03148155780864696    4    1    5    1
 -0.01499615557633311    4    1    6    2
 1.856793766739515e-15    4    1    6    3
 -3.652508535865573e-14    4    1    6    6
 5.379513024275639e-15    4    2    2    1
 0.02405729783431784    4    2    3    1
 0.03556824446142336    4    2    4    2
 2.764975130543738e-15    4    2    4    3
 -0.008605871793429389    4    2    6    1
 -2.941417597593818e-15    4    2    6    4
 0.02722517833350071    4    3    2    1
 -5.349670359477976e-15    4    3    3    1
 2.773463153654462e-15    4    3    4    2
 0.06082241781422607    4    3    4    3
 9.036838660193836e-15    4    3    6    1
 -0.004169562260519927    4    3    6    4
 0.4725650319810161    4    4    1    1
 0.4519040053033765    4    4    2    2
 0.4440692426366047    4    4    3    3
 0.4094775826137508    4    4    4    4
 0.3761316424783953    4    4    5    5
 2.049945880572192e-14    4    4    6    2
 -0.04975773679127776    4    4    6    3
 0.3207966518407553    4    4    6    6
 -1.329936594879344e-15    5    1    1    1
 -1.366562913681369e-14    5    1    2    2
 -0.06069125251808383    5    1    3    2
 1.17733190727979e-14    5    1    3    3
 -0.03148155780864696    5    1    4    1
 0.03257901261743189    5    1    5    1
 0.01148202162996995    5    1    6    2
 -1.431037070748796e-15    5    1    6    3
 4.46607794967646e-14    5    1    6    6
 -4.064375789050723e-15    5    2    2    1
 -0.01841981517771081    5    2    3    1
 0.03556824446142338    5    2    5    2
 2.443955622550253e-15    5    2    5    3
 0.006589209185909441    5    2    6    1
 -3.41080347288341e-15    5    2    6    5
 -0.02084534832369795    5    3    2    1
 4.098609472646952e-15    5    3    3    1
 2.434827242531404e-15    5    3    5    2
 0.06082241781422619    5    3    5    3
 -7.006991964734685e-15    5    3    6    1
 -0.004169562260519945    5    3    6    5
 -0.01433083979547591    5    4    1    1
 0.0166729700676772    5    4    5    4
 6.175762416384197e-15    5    4    6    6
 0.4648207753073482    5    5    1    1
 0.4519040053033767    5    5    2    2
 -1.133680820808965e-15    5    5    3    2
 0.4440692426366049    5    5    3    3
 0.3761316424783944    5    5    4    4
 0.4094775826137506    5    5    5    5
 2.045649510035251e-14    5    5    6    2
 -0.04975773679128002    5    5    6    3
 0.3207966518407661    5    5    6    6
 6.987710106723388e-15    6    1    2    1
 -0.01509285614132868    6    1    3    1
 -0.008605871793429398    6    1    4    2
 8.987950891792459e-15    6    1    4    3
 0.006589209185909358    6    1    5    2
 -6.844843970603376e-15    6    1    5    3
 0.007790448390074957    6    1    6    1
 -1.173606108315458e-14    6    1    6    4
 9.006987736824936e-15    6    1    6    5
 5.248798899855356e-14    6    2    1    1
 2.913153659273027e-14    6    2    2    2
 -0.03254212612282285    6    2    3    2
 3.057942760771246e-14    6    2    3    3
 -0.01499615557633295    6    2    4    1
 2.038895331382475e-14    6    2    4    4
 0.01148202162996935    6    2    5    1
 2.020199667816282e-14    6    2    5    5
 0.02444663150978692    6    2    6    2
 -2.53681421030251e-14    6    2    6    3
 -3.299566566153378e-13    6    2    6    6
 -0.1040594442132654    6    3    1    1
 -0.08979309436410762    6    3    2    2
 -2.529009987539688e-15    6    3    3    2
 -0.08210281594277123    6    3    3    3
 2.637511519951174e-15    6    3    4    1
 -0.04975773679127672    6    3    4    4
 -1.729898776309247e-15    6    3    5    1
 -0.04975773679127714    6    3    5    5
 -3.253950928150395e-14    6    3    6    2
 0.04121536164276633    6    3    6    3
 -0.002168728432794116    6    3    6    6
 -0.004087550650842371    6    4    2    1
 1.172012384061463e-15    6    4    3    1
 -3.169504243947069e-15    6    4    4    2
 -0.004169562260520033    6    4    4    3
 -1.459855863581924e-14    6    4    6    1
 0.0137083786881039    6    4    6    4
 0.003129691789850375    6    5    2    1
 -3.276565562456873e-15    6    5    5    2
 -0.004169562260520277    6    5    5    3
 1.118389777489404e-14    6    5    6    1
 0.01370837868810378    6    5    6    5
 0.3415775937986095    6    6    1    1
 0.3648221624459104    6    6    2    2
 -1.556610743080888e-13    6    6    3    2
 0.3644976777818774    6    6    3    3
 -6.749830729069206e-14    6    6    4    1
 0.3207966518407415    6    6    4    4
 5.146577608527991e-14    6    6    5    1
 0.3207966518407409    6    6    5    5
 -6.695945881096677e-14    6    6    6    2
 -0.002168728432573847    6    6    6    3
 0.3517686628184914    6    6    6    6
 -3.840077575557159    1    1  0  0
 -3.349115809917561    2    2  0  0
 1.530035475852207e-14    3    2  0  0
 -3.199369128782825    3    3  0  0
 -2.166365214561738    4    4  0  0
 4.298644773470528e-15    5    1  0  0
 -3.254011793982977e-15    5    2  0  0
 -0.002819878217693222    5    4  0  0
 -2.167889051337394    5    5  0  0
 1.127723928136597e-15    6    1  0  0
 -2.034553577280081e-13    6    2  0  0
 0.422174703605785    6    3  0  0
 -1.438947686716341    6    6  0  0
 -95.08828971835544  0  0  0  0
