 &FCI NORB=   2,NELEC= 2,MS2=0,
  ORBSYM=1,1,
  ISYM=1,
 &END
 0.710628336745307    1    1    1    1
 0.6980045768066114    1    1    2    2
 0.1712445173649531    2    1    2    1
 0.6980045768066113    2    2    1    1
 0.7345822314923215    2    2    2    2
 -1.375909728206837    1    1  0  0
 -0.3149091064026007    2    2  0  0
 0.962140383490909  0  0  0  0
