 &FCI NORB=   2,NELEC= 2,MS2=0,
  ORBSYM=1,1,
  ISYM=1,
 &END
 0.6176564737701735    1    1    1    1
 0.6143955330929204    1    1    2    2
 0.1999842665359667    2    1    2    1
 0.6143955330929203    2    2    1    1
 0.6451743398813239    2    2    2    2
 -1.086645762765648    1    1  0  0
 -0.6028381163108592    2    2  0  0
 0.5039782961142857  0  0  0  0
