 &FCI NORB=   2,NELEC= 2,MS2=0,
  ORBSYM=1,1,
  ISYM=1,
 &END
 0.5855135095289279    1    1    1    1
 0.5876539729133292    1    1    2    2
 0.2131024013141509    2    1    2    1
 0.5876539729133294    2    2    1    1
 0.615616810253768    2    2    2    2
 -0.9989845461779098    1    1  0  0
 -0.6416899901404146    2    2  0  0
 0.423341768736  0  0  0  0
