 &FCI NORB=   2,NELEC= 2,MS2=0,
  ORBSYM=1,1,
  ISYM=1,
 &END
 0.6353794644677535    1    1    1    1
 0.6292688411148575    1    1    2    2
 0.1936503169852441    2    1    2    1
 0.6292688411148575    2    2    1    1
 0.661172098649262    2    2    2    2
 -1.136022517875905    1    1  0  0
 -0.5733268550895146    2    2  0  0
 0.5570286430736843  0  0  0  0
