 &FCI NORB=   2,NELEC= 2,MS2=0,
  ORBSYM=1,1,
  ISYM=1,
 &END
 0.4839455704346634    1    1    1    1
 0.4910464473437319    1    1    2    2
 0.2841599437917632    2    1    2    1
 0.4910464473437319    2    2    1    1
 0.4994474394647718    2    2    2    2
 -0.6942202730228502    1    1  0  0
 -0.6520794703466428    2    2  0  0
 0.2075204748705883  0  0  0  0
