 &FCI NORB=   2,NELEC= 2,MS2=0,
  ORBSYM=1,1,
  ISYM=1,
 &END
 0.5369174522149412    1    1    1    1
 0.5455797515140133    1    1    2    2
 0.2390136460834128    2    1    2    1
 0.5455797515140133    2    2    1    1
 0.5667038880140953    2    2    2    2
 -0.8627176486898976    1    1  0  0
 -0.6710002071304743    2    2  0  0
 0.3207134611636364  0  0  0  0
