 &FCI NORB=   2,NELEC= 2,MS2=0,
  ORBSYM=1,1,
  ISYM=1,
 &END
 0.5198148102958122    1    1    1    1
 0.5294978737717285    1    1    2    2
 0.2508961512677385    2    1    2    1
 0.5294978737717286    2    2    1    1
 0.547286894021482    2    2    2    2
 -0.8113494190895589    1    1  0  0
 -0.6723430617790911    2    2  0  0
 0.2860417356324325  0  0  0  0
