 &FCI NORB=   2,NELEC= 2,MS2=0,
  ORBSYM=1,1,
  ISYM=1,
 &END
 0.5713783093105839    1    1    1    1
 0.5757608985893412    1    1    2    2
 0.219727035735939    2    1    2    1
 0.5757608985893412    2    2    1    1
 0.6020883567536592    2    2    2    2
 -0.9602823017926571    1    1  0  0
 -0.6537845453346721    2    2  0  0
 0.3919831192  0  0  0  0
