 &FCI NORB=   2,NELEC= 2,MS2=0,
  ORBSYM=1,1,
  ISYM=1,
 &END
 0.4875053666698785    1    1    1    1
 0.4952662541142975    1    1    2    2
 0.2801986920702893    2    1    2    1
 0.4952662541142975    2    2    1    1
 0.504774784816391    2    2    2    2
 -0.7063731421219599    1    1  0  0
 -0.6560230263123756    2    2  0  0
 0.2159906983346939  0  0  0  0
