 &FCI NORB=   2,NELEC= 2,MS2=0,
  ORBSYM=1,1,
  ISYM=1,
 &END
 0.6919044052298045    1    1    1    1
 0.6796839139304602    1    1    2    2
 0.1763184516102072    2    1    2    1
 0.6796839139304603    2    2    1    1
 0.7146711110381363    2    2    2    2
 -1.309509868464871    1    1  0  0
 -0.4100263808117849    2    2  0  0
 0.8141187860307693  0  0  0  0
