 &FCI NORB=   2,NELEC= 2,MS2=0,
  ORBSYM=1,1,
  ISYM=1,
 &END
 0.5471334792335381    1    1    1    1
 0.5547726750592896    1    1    2    2
 0.2327402916176647    2    1    2    1
 0.5547726750592895    2    2    1    1
 0.5776341816413481    2    2    2    2
 -0.8923185448824654    1    1  0  0
 -0.6677818213596376    2    2  0  0
 0.3414046522064516  0  0  0  0
