 &FCI NORB=   2,NELEC= 2,MS2=0,
  ORBSYM=1,1,
  ISYM=1,
 &END
 0.5278481406992632    1    1    1    1
 0.5371760266742539    1    1    2    2
 0.2450750204628789    2    1    2    1
 0.5371760266742537    2    2    1    1
 0.5566031727980816    2    2    2    2
 -0.8357918584110571    1    1  0  0
 -0.6723882711356851    2    2  0  0
 0.3023869776685715  0  0  0  0
