 &FCI NORB=   2,NELEC= 2,MS2=0,
  ORBSYM=1,1,
  ISYM=1,
 &END
 0.6538834981399149    1    1    1    1
 0.6451396897231962    1    1    2    2
 0.18756184791878    2    1    2    1
 0.645139689723196    2    2    1    1
 0.678020154355429    2    2    2    2
 -1.189477738338137    1    1  0  0
 -0.5340530764865854    2    2  0  0
 0.6225614246117647  0  0  0  0
