 &FCI NORB=   2,NELEC= 2,MS2=0,
  ORBSYM=1,1,
  ISYM=1,
 &END
 0.4958769298295685    1    1    1    1
 0.5047929502857706    1    1    2    2
 0.2715116471825285    2    1    2    1
 0.5047929502857706    2    2    1    1
 0.5167547295759101    2    2    2    2
 -0.7346178142972317    1    1  0  0
 -0.6633222451385203    2    2  0  0
 0.23518987152  0  0  0  0
