 &FCI NORB=   2,NELEC= 2,MS2=0,
  ORBSYM=1,1,
  ISYM=1,
 &END
 0.5585956698283527    1    1    1    1
 0.5648151279371728    1    1    2    2
 0.2262942593436134    2    1    2    1
 0.5648151279371729    2    2    1    1
 0.5894249283443704    2    2    2    2
 -0.9247813231004933    1    1  0  0
 -0.6622423935334767    2    2  0  0
 0.3649498006344827  0  0  0  0
