 &FCI NORB=   2,NELEC= 2,MS2=0,
  ORBSYM=1,1,
  ISYM=1,
 &END
 0.5127052040395217    1    1    1    1
 0.5224811772475182    1    1    2    2
 0.2564582470193269    2    1    2    1
 0.5224811772475183    2    2    1    1
 0.5387010877401165    2    2    2    2
 -0.789198049115688    1    1  0  0
 -0.671182999029283    2    2  0  0
 0.2713729286769231  0  0  0  0
