 &FCI NORB=   2,NELEC= 2,MS2=0,
  ORBSYM=1,1,
  ISYM=1,
 &END
 0.5008327900406613    1    1    1    1
 0.5101857590124849    1    1    2    2
 0.26676798624768    2    1    2    1
 0.510185759012485    2    2    1    1
 0.52349068296264    2    2    2    2
 -0.7510139331005663    1    1  0  0
 -0.6664878775078922    2    2  0  0
 0.2461289353116279  0  0  0  0
