 &FCI NORB=   2,NELEC= 2,MS2=0,
  ORBSYM=1,1,
  ISYM=1,
 &END
 0.5064114165591549    1    1    1    1
 0.5160635247820164    1    1    2    2
 0.2617503747683466    2    1    2    1
 0.5160635247820162    2    2    1    1
 0.5307881032776952    2    2    2    2
 -0.7691479249020114    1    1  0  0
 -0.669163042749368    2    2  0  0
 0.2581352248390244  0  0  0  0
